# vtk DataFile Version 3.0
#This file was generated by the deal.II library on 2020/9/2 at 8:40:56
ASCII
DATASET UNSTRUCTURED_GRID

POINTS 1536 double
5 0 0
5.125 0 0
5 0.125 0
5.125 0.125 0
5.125 0 0
5.25 0 0
5.125 0.125 0
5.25 0.125 0
5 0.125 0
5.125 0.125 0
5 0.25 0
5.125 0.25 0
5.125 0.125 0
5.25 0.125 0
5.125 0.25 0
5.25 0.25 0
5.25 0 0
5.375 0 0
5.25 0.125 0
5.375 0.125 0
5.375 0 0
5.5 0 0
5.375 0.125 0
5.5 0.125 0
5.25 0.125 0
5.375 0.125 0
5.25 0.25 0
5.375 0.25 0
5.375 0.125 0
5.5 0.125 0
5.375 0.25 0
5.5 0.25 0
5 0.25 0
5.125 0.25 0
5 0.375 0
5.125 0.375 0
5.125 0.25 0
5.25 0.25 0
5.125 0.375 0
5.25 0.375 0
5 0.375 0
5.125 0.375 0
5 0.5 0
5.125 0.5 0
5.125 0.375 0
5.25 0.375 0
5.125 0.5 0
5.25 0.5 0
5.25 0.25 0
5.375 0.25 0
5.25 0.375 0
5.375 0.375 0
5.375 0.25 0
5.5 0.25 0
5.375 0.375 0
5.5 0.375 0
5.25 0.375 0
5.375 0.375 0
5.25 0.5 0
5.375 0.5 0
5.375 0.375 0
5.5 0.375 0
5.375 0.5 0
5.5 0.5 0
5.5 0 0
5.625 0 0
5.5 0.125 0
5.625 0.125 0
5.625 0 0
5.75 0 0
5.625 0.125 0
5.75 0.125 0
5.5 0.125 0
5.625 0.125 0
5.5 0.25 0
5.625 0.25 0
5.625 0.125 0
5.75 0.125 0
5.625 0.25 0
5.75 0.25 0
5.75 0 0
5.875 0 0
5.75 0.125 0
5.875 0.125 0
5.875 0 0
6 0 0
5.875 0.125 0
6 0.125 0
5.75 0.125 0
5.875 0.125 0
5.75 0.25 0
5.875 0.25 0
5.875 0.125 0
6 0.125 0
5.875 0.25 0
6 0.25 0
5.5 0.25 0
5.625 0.25 0
5.5 0.375 0
5.625 0.375 0
5.625 0.25 0
5.75 0.25 0
5.625 0.375 0
5.75 0.375 0
5.5 0.375 0
5.625 0.375 0
5.5 0.5 0
5.625 0.5 0
5.625 0.375 0
5.75 0.375 0
5.625 0.5 0
5.75 0.5 0
5.75 0.25 0
5.875 0.25 0
5.75 0.375 0
5.875 0.375 0
5.875 0.25 0
6 0.25 0
5.875 0.375 0
6 0.375 0
5.75 0.375 0
5.875 0.375 0
5.75 0.5 0
5.875 0.5 0
5.875 0.375 0
6 0.375 0
5.875 0.5 0
6 0.5 0
5 0.5 0
5.125 0.5 0
5 0.625 0
5.125 0.625 0
5.125 0.5 0
5.25 0.5 0
5.125 0.625 0
5.25 0.625 0
5 0.625 0
5.125 0.625 0
5 0.75 0
5.125 0.75 0
5.125 0.625 0
5.25 0.625 0
5.125 0.75 0
5.25 0.75 0
5.25 0.5 0
5.375 0.5 0
5.25 0.625 0
5.375 0.625 0
5.375 0.5 0
5.5 0.5 0
5.375 0.625 0
5.5 0.625 0
5.25 0.625 0
5.375 0.625 0
5.25 0.75 0
5.375 0.75 0
5.375 0.625 0
5.5 0.625 0
5.375 0.75 0
5.5 0.75 0
5 0.75 0
5.125 0.75 0
5 0.875 0
5.125 0.875 0
5.125 0.75 0
5.25 0.75 0
5.125 0.875 0
5.25 0.875 0
5 0.875 0
5.125 0.875 0
5 1 0
5.125 1 0
5.125 0.875 0
5.25 0.875 0
5.125 1 0
5.25 1 0
5.25 0.75 0
5.375 0.75 0
5.25 0.875 0
5.375 0.875 0
5.375 0.75 0
5.5 0.75 0
5.375 0.875 0
5.5 0.875 0
5.25 0.875 0
5.375 0.875 0
5.25 1 0
5.375 1 0
5.375 0.875 0
5.5 0.875 0
5.375 1 0
5.5 1 0
5.5 0.5 0
5.625 0.5 0
5.5 0.625 0
5.625 0.625 0
5.625 0.5 0
5.75 0.5 0
5.625 0.625 0
5.75 0.625 0
5.5 0.625 0
5.625 0.625 0
5.5 0.75 0
5.625 0.75 0
5.625 0.625 0
5.75 0.625 0
5.625 0.75 0
5.75 0.75 0
5.75 0.5 0
5.875 0.5 0
5.75 0.625 0
5.875 0.625 0
5.875 0.5 0
6 0.5 0
5.875 0.625 0
6 0.625 0
5.75 0.625 0
5.875 0.625 0
5.75 0.75 0
5.875 0.75 0
5.875 0.625 0
6 0.625 0
5.875 0.75 0
6 0.75 0
5.5 0.75 0
5.625 0.75 0
5.5 0.875 0
5.625 0.875 0
5.625 0.75 0
5.75 0.75 0
5.625 0.875 0
5.75 0.875 0
5.5 0.875 0
5.625 0.875 0
5.5 1 0
5.625 1 0
5.625 0.875 0
5.75 0.875 0
5.625 1 0
5.75 1 0
5.75 0.75 0
5.875 0.75 0
5.75 0.875 0
5.875 0.875 0
5.875 0.75 0
6 0.75 0
5.875 0.875 0
6 0.875 0
5.75 0.875 0
5.875 0.875 0
5.75 1 0
5.875 1 0
5.875 0.875 0
6 0.875 0
5.875 1 0
6 1 0
4 0 0
4.125 0 0
4 0.125 0
4.125 0.125 0
4.125 0 0
4.25 0 0
4.125 0.125 0
4.25 0.125 0
4 0.125 0
4.125 0.125 0
4 0.25 0
4.125 0.25 0
4.125 0.125 0
4.25 0.125 0
4.125 0.25 0
4.25 0.25 0
4.25 0 0
4.375 0 0
4.25 0.125 0
4.375 0.125 0
4.375 0 0
4.5 0 0
4.375 0.125 0
4.5 0.125 0
4.25 0.125 0
4.375 0.125 0
4.25 0.25 0
4.375 0.25 0
4.375 0.125 0
4.5 0.125 0
4.375 0.25 0
4.5 0.25 0
4 0.25 0
4.125 0.25 0
4 0.375 0
4.125 0.375 0
4.125 0.25 0
4.25 0.25 0
4.125 0.375 0
4.25 0.375 0
4 0.375 0
4.125 0.375 0
4 0.5 0
4.125 0.5 0
4.125 0.375 0
4.25 0.375 0
4.125 0.5 0
4.25 0.5 0
4.25 0.25 0
4.375 0.25 0
4.25 0.375 0
4.375 0.375 0
4.375 0.25 0
4.5 0.25 0
4.375 0.375 0
4.5 0.375 0
4.25 0.375 0
4.375 0.375 0
4.25 0.5 0
4.375 0.5 0
4.375 0.375 0
4.5 0.375 0
4.375 0.5 0
4.5 0.5 0
4.5 0 0
4.625 0 0
4.5 0.125 0
4.625 0.125 0
4.625 0 0
4.75 0 0
4.625 0.125 0
4.75 0.125 0
4.5 0.125 0
4.625 0.125 0
4.5 0.25 0
4.625 0.25 0
4.625 0.125 0
4.75 0.125 0
4.625 0.25 0
4.75 0.25 0
4.75 0 0
4.875 0 0
4.75 0.125 0
4.875 0.125 0
4.875 0 0
5 0 0
4.875 0.125 0
5 0.125 0
4.75 0.125 0
4.875 0.125 0
4.75 0.25 0
4.875 0.25 0
4.875 0.125 0
5 0.125 0
4.875 0.25 0
5 0.25 0
4.5 0.25 0
4.625 0.25 0
4.5 0.375 0
4.625 0.375 0
4.625 0.25 0
4.75 0.25 0
4.625 0.375 0
4.75 0.375 0
4.5 0.375 0
4.625 0.375 0
4.5 0.5 0
4.625 0.5 0
4.625 0.375 0
4.75 0.375 0
4.625 0.5 0
4.75 0.5 0
4.75 0.25 0
4.875 0.25 0
4.75 0.375 0
4.875 0.375 0
4.875 0.25 0
5 0.25 0
4.875 0.375 0
5 0.375 0
4.75 0.375 0
4.875 0.375 0
4.75 0.5 0
4.875 0.5 0
4.875 0.375 0
5 0.375 0
4.875 0.5 0
5 0.5 0
4 0.5 0
4.125 0.5 0
4 0.625 0
4.125 0.625 0
4.125 0.5 0
4.25 0.5 0
4.125 0.625 0
4.25 0.625 0
4 0.625 0
4.125 0.625 0
4 0.75 0
4.125 0.75 0
4.125 0.625 0
4.25 0.625 0
4.125 0.75 0
4.25 0.75 0
4.25 0.5 0
4.375 0.5 0
4.25 0.625 0
4.375 0.625 0
4.375 0.5 0
4.5 0.5 0
4.375 0.625 0
4.5 0.625 0
4.25 0.625 0
4.375 0.625 0
4.25 0.75 0
4.375 0.75 0
4.375 0.625 0
4.5 0.625 0
4.375 0.75 0
4.5 0.75 0
4 0.75 0
4.125 0.75 0
4 0.875 0
4.125 0.875 0
4.125 0.75 0
4.25 0.75 0
4.125 0.875 0
4.25 0.875 0
4 0.875 0
4.125 0.875 0
4 1 0
4.125 1 0
4.125 0.875 0
4.25 0.875 0
4.125 1 0
4.25 1 0
4.25 0.75 0
4.375 0.75 0
4.25 0.875 0
4.375 0.875 0
4.375 0.75 0
4.5 0.75 0
4.375 0.875 0
4.5 0.875 0
4.25 0.875 0
4.375 0.875 0
4.25 1 0
4.375 1 0
4.375 0.875 0
4.5 0.875 0
4.375 1 0
4.5 1 0
4.5 0.5 0
4.625 0.5 0
4.5 0.625 0
4.625 0.625 0
4.625 0.5 0
4.75 0.5 0
4.625 0.625 0
4.75 0.625 0
4.5 0.625 0
4.625 0.625 0
4.5 0.75 0
4.625 0.75 0
4.625 0.625 0
4.75 0.625 0
4.625 0.75 0
4.75 0.75 0
4.75 0.5 0
4.875 0.5 0
4.75 0.625 0
4.875 0.625 0
4.875 0.5 0
5 0.5 0
4.875 0.625 0
5 0.625 0
4.75 0.625 0
4.875 0.625 0
4.75 0.75 0
4.875 0.75 0
4.875 0.625 0
5 0.625 0
4.875 0.75 0
5 0.75 0
4.5 0.75 0
4.625 0.75 0
4.5 0.875 0
4.625 0.875 0
4.625 0.75 0
4.75 0.75 0
4.625 0.875 0
4.75 0.875 0
4.5 0.875 0
4.625 0.875 0
4.5 1 0
4.625 1 0
4.625 0.875 0
4.75 0.875 0
4.625 1 0
4.75 1 0
4.75 0.75 0
4.875 0.75 0
4.75 0.875 0
4.875 0.875 0
4.875 0.75 0
5 0.75 0
4.875 0.875 0
5 0.875 0
4.75 0.875 0
4.875 0.875 0
4.75 1 0
4.875 1 0
4.875 0.875 0
5 0.875 0
4.875 1 0
5 1 0
3 0 0
3.125 0 0
3 0.125 0
3.125 0.125 0
3.125 0 0
3.25 0 0
3.125 0.125 0
3.25 0.125 0
3 0.125 0
3.125 0.125 0
3 0.25 0
3.125 0.25 0
3.125 0.125 0
3.25 0.125 0
3.125 0.25 0
3.25 0.25 0
3.25 0 0
3.375 0 0
3.25 0.125 0
3.375 0.125 0
3.375 0 0
3.5 0 0
3.375 0.125 0
3.5 0.125 0
3.25 0.125 0
3.375 0.125 0
3.25 0.25 0
3.375 0.25 0
3.375 0.125 0
3.5 0.125 0
3.375 0.25 0
3.5 0.25 0
3 0.25 0
3.125 0.25 0
3 0.375 0
3.125 0.375 0
3.125 0.25 0
3.25 0.25 0
3.125 0.375 0
3.25 0.375 0
3 0.375 0
3.125 0.375 0
3 0.5 0
3.125 0.5 0
3.125 0.375 0
3.25 0.375 0
3.125 0.5 0
3.25 0.5 0
3.25 0.25 0
3.375 0.25 0
3.25 0.375 0
3.375 0.375 0
3.375 0.25 0
3.5 0.25 0
3.375 0.375 0
3.5 0.375 0
3.25 0.375 0
3.375 0.375 0
3.25 0.5 0
3.375 0.5 0
3.375 0.375 0
3.5 0.375 0
3.375 0.5 0
3.5 0.5 0
3.5 0 0
3.625 0 0
3.5 0.125 0
3.625 0.125 0
3.625 0 0
3.75 0 0
3.625 0.125 0
3.75 0.125 0
3.5 0.125 0
3.625 0.125 0
3.5 0.25 0
3.625 0.25 0
3.625 0.125 0
3.75 0.125 0
3.625 0.25 0
3.75 0.25 0
3.75 0 0
3.875 0 0
3.75 0.125 0
3.875 0.125 0
3.875 0 0
4 0 0
3.875 0.125 0
4 0.125 0
3.75 0.125 0
3.875 0.125 0
3.75 0.25 0
3.875 0.25 0
3.875 0.125 0
4 0.125 0
3.875 0.25 0
4 0.25 0
3.5 0.25 0
3.625 0.25 0
3.5 0.375 0
3.625 0.375 0
3.625 0.25 0
3.75 0.25 0
3.625 0.375 0
3.75 0.375 0
3.5 0.375 0
3.625 0.375 0
3.5 0.5 0
3.625 0.5 0
3.625 0.375 0
3.75 0.375 0
3.625 0.5 0
3.75 0.5 0
3.75 0.25 0
3.875 0.25 0
3.75 0.375 0
3.875 0.375 0
3.875 0.25 0
4 0.25 0
3.875 0.375 0
4 0.375 0
3.75 0.375 0
3.875 0.375 0
3.75 0.5 0
3.875 0.5 0
3.875 0.375 0
4 0.375 0
3.875 0.5 0
4 0.5 0
3 0.5 0
3.125 0.5 0
3 0.625 0
3.125 0.625 0
3.125 0.5 0
3.25 0.5 0
3.125 0.625 0
3.25 0.625 0
3 0.625 0
3.125 0.625 0
3 0.75 0
3.125 0.75 0
3.125 0.625 0
3.25 0.625 0
3.125 0.75 0
3.25 0.75 0
3.25 0.5 0
3.375 0.5 0
3.25 0.625 0
3.375 0.625 0
3.375 0.5 0
3.5 0.5 0
3.375 0.625 0
3.5 0.625 0
3.25 0.625 0
3.375 0.625 0
3.25 0.75 0
3.375 0.75 0
3.375 0.625 0
3.5 0.625 0
3.375 0.75 0
3.5 0.75 0
3 0.75 0
3.125 0.75 0
3 0.875 0
3.125 0.875 0
3.125 0.75 0
3.25 0.75 0
3.125 0.875 0
3.25 0.875 0
3 0.875 0
3.125 0.875 0
3 1 0
3.125 1 0
3.125 0.875 0
3.25 0.875 0
3.125 1 0
3.25 1 0
3.25 0.75 0
3.375 0.75 0
3.25 0.875 0
3.375 0.875 0
3.375 0.75 0
3.5 0.75 0
3.375 0.875 0
3.5 0.875 0
3.25 0.875 0
3.375 0.875 0
3.25 1 0
3.375 1 0
3.375 0.875 0
3.5 0.875 0
3.375 1 0
3.5 1 0
3.5 0.5 0
3.625 0.5 0
3.5 0.625 0
3.625 0.625 0
3.625 0.5 0
3.75 0.5 0
3.625 0.625 0
3.75 0.625 0
3.5 0.625 0
3.625 0.625 0
3.5 0.75 0
3.625 0.75 0
3.625 0.625 0
3.75 0.625 0
3.625 0.75 0
3.75 0.75 0
3.75 0.5 0
3.875 0.5 0
3.75 0.625 0
3.875 0.625 0
3.875 0.5 0
4 0.5 0
3.875 0.625 0
4 0.625 0
3.75 0.625 0
3.875 0.625 0
3.75 0.75 0
3.875 0.75 0
3.875 0.625 0
4 0.625 0
3.875 0.75 0
4 0.75 0
3.5 0.75 0
3.625 0.75 0
3.5 0.875 0
3.625 0.875 0
3.625 0.75 0
3.75 0.75 0
3.625 0.875 0
3.75 0.875 0
3.5 0.875 0
3.625 0.875 0
3.5 1 0
3.625 1 0
3.625 0.875 0
3.75 0.875 0
3.625 1 0
3.75 1 0
3.75 0.75 0
3.875 0.75 0
3.75 0.875 0
3.875 0.875 0
3.875 0.75 0
4 0.75 0
3.875 0.875 0
4 0.875 0
3.75 0.875 0
3.875 0.875 0
3.75 1 0
3.875 1 0
3.875 0.875 0
4 0.875 0
3.875 1 0
4 1 0
2 0 0
2.125 0 0
2 0.125 0
2.125 0.125 0
2.125 0 0
2.25 0 0
2.125 0.125 0
2.25 0.125 0
2 0.125 0
2.125 0.125 0
2 0.25 0
2.125 0.25 0
2.125 0.125 0
2.25 0.125 0
2.125 0.25 0
2.25 0.25 0
2.25 0 0
2.375 0 0
2.25 0.125 0
2.375 0.125 0
2.375 0 0
2.5 0 0
2.375 0.125 0
2.5 0.125 0
2.25 0.125 0
2.375 0.125 0
2.25 0.25 0
2.375 0.25 0
2.375 0.125 0
2.5 0.125 0
2.375 0.25 0
2.5 0.25 0
2 0.25 0
2.125 0.25 0
2 0.375 0
2.125 0.375 0
2.125 0.25 0
2.25 0.25 0
2.125 0.375 0
2.25 0.375 0
2 0.375 0
2.125 0.375 0
2 0.5 0
2.125 0.5 0
2.125 0.375 0
2.25 0.375 0
2.125 0.5 0
2.25 0.5 0
2.25 0.25 0
2.375 0.25 0
2.25 0.375 0
2.375 0.375 0
2.375 0.25 0
[...]
POINT_DATA 1536
VECTORS displacements double
38.8001 -45.4789 0
39.5373 -40.6769 0
34.1895 -45.7003 0
34.7519 -40.8845 0
39.5373 -40.6769 0
40.2564 -35.6924 0
34.7519 -40.8845 0
35.277 -35.8982 0
34.1895 -45.7003 0
34.7519 -40.8845 0
30.1111 -45.8609 0
30.4738 -41.028 0
34.7519 -40.8845 0
35.277 -35.8982 0
30.4738 -41.028 0
30.8261 -36.0246 0
40.2564 -35.6924 0
40.9365 -30.5298 0
35.277 -35.8982 0
35.7931 -30.7159 0
40.9365 -30.5298 0
41.6189 -25.1925 0
35.7931 -30.7159 0
36.2666 -25.3872 0
35.277 -35.8982 0
35.7931 -30.7159 0
30.8261 -36.0246 0
31.1481 -30.8373 0
35.7931 -30.7159 0
36.2666 -25.3872 0
31.1481 -30.8373 0
31.4394 -25.474 0
30.1111 -45.8609 0
30.4738 -41.028 0
26.1892 -45.935 0
26.3857 -41.1128 0
30.4738 -41.028 0
30.8261 -36.0246 0
26.3857 -41.1128 0
26.533 -36.0797 0
26.1892 -45.935 0
26.3857 -41.1128 0
22.3505 -45.9506 0
22.3487 -41.0961 0
26.3857 -41.1128 0
26.533 -36.0797 0
22.3487 -41.0961 0
22.3461 -36.0784 0
30.8261 -36.0246 0
31.1481 -30.8373 0
26.533 -36.0797 0
26.6753 -30.8712 0
31.1481 -30.8373 0
31.4394 -25.474 0
26.6753 -30.8712 0
26.7872 -25.4889 0
26.533 -36.0797 0
26.6753 -30.8712 0
22.3461 -36.0784 0
22.2837 -30.8335 0
26.6753 -30.8712 0
26.7872 -25.4889 0
22.2837 -30.8335 0
22.2402 -25.4382 0
41.6189 -25.1925 0
42.2743 -19.6812 0
36.2666 -25.3872 0
36.735 -19.8394 0
42.2743 -19.6812 0
43.0225 -13.9152 0
36.735 -19.8394 0
37.0984 -14.134 0
36.2666 -25.3872 0
36.735 -19.8394 0
31.4394 -25.474 0
31.6964 -19.9167 0
36.735 -19.8394 0
37.0984 -14.134 0
31.6964 -19.9167 0
31.881 -14.1461 0
43.0225 -13.9152 0
43.8464 -7.86335 0
37.0984 -14.134 0
37.2907 -7.78003 0
43.8464 -7.86335 0
44.2808 0 0
37.2907 -7.78003 0
37.4884 -1.41743 0
37.0984 -14.134 0
37.2907 -7.78003 0
31.881 -14.1461 0
31.8867 -8.06826 0
37.2907 -7.78003 0
37.4884 -1.41743 0
31.8867 -8.06826 0
32.0228 -2.35624 0
31.4394 -25.474 0
31.6964 -19.9167 0
26.7872 -25.4889 0
26.8659 -19.9329 0
31.6964 -19.9167 0
31.881 -14.1461 0
26.8659 -19.9329 0
26.8209 -14.2162 0
26.7872 -25.4889 0
26.8659 -19.9329 0
22.2402 -25.4382 0
22.1296 -19.9595 0
26.8659 -19.9329 0
26.8209 -14.2162 0
22.1296 -19.9595 0
22.0032 -14.4043 0
31.881 -14.1461 0
31.8867 -8.06826 0
26.8209 -14.2162 0
26.8179 -8.51447 0
31.8867 -8.06826 0
32.0228 -2.35624 0
26.8179 -8.51447 0
26.8883 -2.95722 0
26.8209 -14.2162 0
26.8179 -8.51447 0
22.0032 -14.4043 0
21.9469 -8.85259 0
26.8179 -8.51447 0
26.8883 -2.95722 0
21.9469 -8.85259 0
22.02 -3.55279 0
22.3505 -45.9506 0
22.3487 -41.0961 0
18.5074 -45.8779 0
18.3171 -41.0347 0
22.3487 -41.0961 0
22.3461 -36.0784 0
18.3171 -41.0347 0
18.1096 -35.9644 0
18.5074 -45.8779 0
18.3171 -41.0347 0
14.5629 -45.7261 0
14.1948 -40.8829 0
18.3171 -41.0347 0
18.1096 -35.9644 0
14.1948 -40.8829 0
13.8154 -35.8526 0
22.3461 -36.0784 0
22.2837 -30.8335 0
18.1096 -35.9644 0
17.9238 -30.753 0
22.2837 -30.8335 0
22.2402 -25.4382 0
17.9238 -30.753 0
17.6906 -25.4228 0
18.1096 -35.9644 0
17.9238 -30.753 0
13.8154 -35.8526 0
13.4193 -30.6786 0
17.9238 -30.753 0
17.6906 -25.4228 0
13.4193 -30.6786 0
13.0674 -25.393 0
14.5629 -45.7261 0
14.1948 -40.8829 0
10.4023 -45.5311 0
9.81883 -40.7065 0
14.1948 -40.8829 0
13.8154 -35.8526 0
9.81883 -40.7065 0
9.26821 -35.7221 0
10.4023 -45.5311 0
9.81883 -40.7065 0
5.85786 -45.3092 0
5.19173 -40.5002 0
9.81883 -40.7065 0
9.26821 -35.7221 0
5.19173 -40.5002 0
4.64419 -35.5989 0
13.8154 -35.8526 0
13.4193 -30.6786 0
9.26821 -35.7221 0
8.81941 -30.5839 0
13.4193 -30.6786 0
13.0674 -25.393 0
8.81941 -30.5839 0
8.47357 -25.3874 0
9.26821 -35.7221 0
8.81941 -30.5839 0
4.64419 -35.5989 0
4.11152 -30.5128 0
8.81941 -30.5839 0
8.47357 -25.3874 0
4.11152 -30.5128 0
3.56507 -25.2778 0
22.2402 -25.4382 0
22.1296 -19.9595 0
17.6906 -25.4228 0
17.4493 -20.0103 0
22.1296 -19.9595 0
22.0032 -14.4043 0
17.4493 -20.0103 0
17.3027 -14.5708 0
17.6906 -25.4228 0
17.4493 -20.0103 0
13.0674 -25.393 0
12.8361 -20.0683 0
17.4493 -20.0103 0
17.3027 -14.5708 0
12.8361 -20.0683 0
12.6484 -14.6859 0
22.0032 -14.4043 0
21.9469 -8.85259 0
17.3027 -14.5708 0
17.2354 -9.1477 0
21.9469 -8.85259 0
22.02 -3.55279 0
17.2354 -9.1477 0
17.3023 -4.0478 0
17.3027 -14.5708 0
17.2354 -9.1477 0
12.6484 -14.6859 0
12.5687 -9.36766 0
17.2354 -9.1477 0
17.3023 -4.0478 0
12.5687 -9.36766 0
12.5949 -4.34781 0
13.0674 -25.393 0
12.8361 -20.0683 0
8.47357 -25.3874 0
8.14365 -20.0654 0
12.8361 -20.0683 0
12.6484 -14.6859 0
8.14365 -20.0654 0
7.9043 -14.7181 0
8.47357 -25.3874 0
8.14365 -20.0654 0
3.56507 -25.2778 0
3.13721 -19.9806 0
8.14365 -20.0654 0
7.9043 -14.7181 0
3.13721 -19.9806 0
2.87433 -14.682 0
12.6484 -14.6859 0
12.5687 -9.36766 0
7.9043 -14.7181 0
7.78648 -9.47423 0
12.5687 -9.36766 0
12.5949 -4.34781 0
7.78648 -9.47423 0
7.76641 -4.44509 0
7.9043 -14.7181 0
7.78648 -9.47423 0
2.87433 -14.682 0
2.78615 -9.49147 0
7.78648 -9.47423 0
7.76641 -4.44509 0
2.78615 -9.49147 0
2.78027 -4.45153 0
31.6773 -76.3176 0
32.695 -73.2978 0
28.9028 -76.6147 0
29.6411 -73.5845 0
32.695 -73.2978 0
33.6686 -70.011 0
29.6411 -73.5845 0
30.3602 -70.2861 0
28.9028 -76.6147 0
29.6411 -73.5845 0
26.5701 -76.81 0
27.0231 -73.7737 0
29.6411 -73.5845 0
30.3602 -70.2861 0
27.0231 -73.7737 0
27.4829 -70.4664 0
33.6686 -70.011 0
34.6056 -66.4801 0
30.3602 -70.2861 0
31.0551 -66.7443 0
34.6056 -66.4801 0
35.513 -62.7145 0
31.0551 -66.7443 0
31.7222 -62.9723 0
30.3602 -70.2861 0
31.0551 -66.7443 0
27.4829 -70.4664 0
27.9471 -66.9126 0
31.0551 -66.7443 0
31.7222 -62.9723 0
27.9471 -66.9126 0
28.4077 -63.1325 0
26.5701 -76.81 0
27.0231 -73.7737 0
24.4597 -76.9007 0
24.6333 -73.8593 0
27.0231 -73.7737 0
27.4829 -70.4664 0
24.6333 -73.8593 0
24.8282 -70.549 0
24.4597 -76.9007 0
24.6333 -73.8593 0
22.4123 -76.8854 0
22.3232 -73.8405 0
24.6333 -73.8593 0
24.8282 -70.549 0
22.3232 -73.8405 0
22.2721 -70.5342 0
27.4829 -70.4664 0
27.9471 -66.9126 0
24.8282 -70.549 0
25.0451 -66.9933 0
27.9471 -66.9126 0
28.4077 -63.1325 0
25.0451 -66.9933 0
25.2773 -63.2114 0
24.8282 -70.549 0
25.0451 -66.9933 0
22.2721 -70.5342 0
22.2514 -66.9862 0
25.0451 -66.9933 0
25.2773 -63.2114 0
22.2514 -66.9862 0
22.2522 -63.2083 0
35.513 -62.7145 0
36.3843 -58.7183 0
31.7222 -62.9723 0
32.3728 -58.967 0
36.3843 -58.7183 0
37.2198 -54.5081 0
32.3728 -58.967 0
33.0046 -54.7466 0
31.7222 -62.9723 0
32.3728 -58.967 0
28.4077 -63.1325 0
28.8557 -59.1364 0
32.3728 -58.967 0
33.0046 -54.7466 0
28.8557 -59.1364 0
29.2904 -54.9152 0
37.2198 -54.5081 0
38.0259 -50.0945 0
33.0046 -54.7466 0
33.6091 -50.3246 0
38.0259 -50.0945 0
38.8001 -45.4789 0
33.6091 -50.3246 0
34.1895 -45.7003 0
33.0046 -54.7466 0
33.6091 -50.3246 0
29.2904 -54.9152 0
29.7091 -50.4842 0
33.6091 -50.3246 0
34.1895 -45.7003 0
29.7091 -50.4842 0
30.1111 -45.8609 0
28.4077 -63.1325 0
28.8557 -59.1364 0
25.2773 -63.2114 0
25.518 -59.2135 0
28.8557 -59.1364 0
29.2904 -54.9152 0
25.518 -59.2135 0
25.757 -55.0055 0
25.2773 -63.2114 0
25.518 -59.2135 0
22.2522 -63.2083 0
22.2686 -59.2127 0
25.518 -59.2135 0
25.757 -55.0055 0
22.2686 -59.2127 0
22.2987 -55.005 0
29.2904 -54.9152 0
29.7091 -50.4842 0
25.757 -55.0055 0
25.9825 -50.5779 0
29.7091 -50.4842 0
30.1111 -45.8609 0
25.9825 -50.5779 0
26.1892 -45.935 0
25.757 -55.0055 0
25.9825 -50.5779 0
22.2987 -55.005 0
22.3329 -50.5865 0
25.9825 -50.5779 0
26.1892 -45.935 0
22.3329 -50.5865 0
22.3505 -45.9506 0
22.4123 -76.8854 0
22.3232 -73.8405 0
20.3296 -76.7701 0
20.0073 -73.7243 0
22.3232 -73.8405 0
22.2721 -70.5342 0
20.0073 -73.7243 0
19.7253 -70.4339 0
20.3296 -76.7701 0
20.0073 -73.7243 0
18.1539 -76.5665 0
17.6144 -73.5379 0
20.0073 -73.7243 0
19.7253 -70.4339 0
17.6144 -73.5379 0
17.1053 -70.2655 0
22.2721 -70.5342 0
22.2514 -66.9862 0
19.7253 -70.4339 0
19.4754 -66.901 0
22.2514 -66.9862 0
22.2522 -63.2083 0
19.4754 -66.901 0
19.2495 -63.1345 0
19.7253 -70.4339 0
19.4754 -66.901 0
17.1053 -70.2655 0
16.6253 -66.7507 0
19.4754 -66.901 0
19.2495 -63.1345 0
16.6253 -66.7507 0
16.1712 -62.9961 0
18.1539 -76.5665 0
17.6144 -73.5379 0
15.7691 -76.3216 0
15.0078 -73.3031 0
17.6144 -73.5379 0
17.1053 -70.2655 0
15.0078 -73.3031 0
14.2741 -70.0442 0
15.7691 -76.3216 0
15.0078 -73.3031 0
12.9381 -76.0246 0
11.947 -73.0142 0
15.0078 -73.3031 0
14.2741 -70.0442 0
11.947 -73.0142 0
10.979 -69.764 0
17.1053 -70.2655 0
16.6253 -66.7507 0
14.2741 -70.0442 0
13.5675 -66.5421 0
16.6253 -66.7507 0
16.1712 -62.9961 0
13.5675 -66.5421 0
12.8874 -62.7985 0
14.2741 -70.0442 0
13.5675 -66.5421 0
10.979 -69.764 0
10.0378 -66.2713 0
13.5675 -66.5421 0
12.8874 -62.7985 0
10.0378 -66.2713 0
9.12639 -62.5373 0
22.2522 -63.2083 0
22.2686 -59.2127 0
19.2495 -63.1345 0
19.0425 -59.1413 0
22.2686 -59.2127 0
22.2987 -55.005 0
19.0425 -59.1413 0
18.8504 -54.9306 0
19.2495 -63.1345 0
19.0425 -59.1413 0
16.1712 -62.9961 0
15.7395 -59.0086 0
19.0425 -59.1413 0
18.8504 -54.9306 0
15.7395 -59.0086 0
15.3294 -54.7951 0
22.2987 -55.005 0
22.3329 -50.5865 0
18.8504 -54.9306 0
18.6752 -50.5098 0
22.3329 -50.5865 0
22.3505 -45.9506 0
18.6752 -50.5098 0
18.5074 -45.8779 0
18.8504 -54.9306 0
18.6752 -50.5098 0
15.3294 -54.7951 0
14.9376 -50.3639 0
18.6752 -50.5098 0
18.5074 -45.8779 0
14.9376 -50.3639 0
14.5629 -45.7261 0
16.1712 -62.9961 0
15.7395 -59.0086 0
12.8874 -62.7985 0
12.2331 -58.8174 0
15.7395 -59.0086 0
15.3294 -54.7951 0
12.2331 -58.8174 0
11.6028 -54.6055 0
12.8874 -62.7985 0
12.2331 -58.8174 0
9.12639 -62.5373 0
8.24773 -58.5659 0
12.2331 -58.8174 0
11.6028 -54.6055 0
8.24773 -58.5659 0
7.40555 -54.3639 0
15.3294 -54.7951 0
14.9376 -50.3639 0
11.6028 -54.6055 0
10.9947 -50.1725 0
14.9376 -50.3639 0
14.5629 -45.7261 0
10.9947 -50.1725 0
10.4023 -45.5311 0
11.6028 -54.6055 0
10.9947 -50.1725 0
7.40555 -54.3639 0
6.60487 -49.9402 0
10.9947 -50.1725 0
10.4023 -45.5311 0
6.60487 -49.9402 0
5.85786 -45.3092 0
22.1404 -88.2537 0
23.4216 -88.0546 0
22.1404 -88.6231 0
23.0476 -88.4224 0
23.4216 -88.0546 0
24.6899 -87.4639 0
23.0476 -88.4224 0
23.9516 -87.8269 0
22.1404 -88.6231 0
23.0476 -88.4224 0
22.1404 -89.095 0
22.8822 -88.8691 0
23.0476 -88.4224 0
23.9516 -87.8269 0
22.8822 -88.8691 0
23.568 -88.2043 0
24.6899 -87.4639 0
25.9353 -86.4978 0
23.9516 -87.8269 0
24.847 -86.853 0
25.9353 -86.4978 0
27.1543 -85.1703 0
24.847 -86.853 0
25.72 -85.5154 0
23.9516 -87.8269 0
24.847 -86.853 0
23.568 -88.2043 0
24.1673 -87.1669 0
24.847 -86.853 0
25.72 -85.5154 0
24.1673 -87.1669 0
24.6943 -85.7893 0
22.1404 -89.095 0
22.8822 -88.8691 0
22.1404 -89.633 0
22.6901 -89.3872 0
22.8822 -88.8691 0
23.568 -88.2043 0
22.6901 -89.3872 0
23.174 -88.6751 0
22.1404 -89.633 0
22.6901 -89.3872 0
22.1404 -90.1613 0
22.4812 -89.8977 0
22.6901 -89.3872 0
23.174 -88.6751 0
22.4812 -89.8977 0
22.7402 -89.1198 0
23.568 -88.2043 0
24.1673 -87.1669 0
23.174 -88.6751 0
23.5406 -87.5365 0
24.1673 -87.1669 0
24.6943 -85.7893 0
23.5406 -87.5365 0
23.815 -86.0667 0
23.174 -88.6751 0
23.5406 -87.5365 0
22.7402 -89.1198 0
22.8655 -87.8741 0
23.5406 -87.5365 0
23.815 -86.0667 0
22.8655 -87.8741 0
22.8702 -86.2688 0
27.1543 -85.1703 0
28.3457 -83.4811 0
25.72 -85.5154 0
26.5579 -83.8161 0
28.3457 -83.4811 0
29.4984 -81.4336 0
26.5579 -83.8161 0
27.3693 -81.7547 0
25.72 -85.5154 0
26.5579 -83.8161 0
24.6943 -85.7893 0
25.1983 -84.0606 0
26.5579 -83.8161 0
27.3693 -81.7547 0
25.1983 -84.0606 0
25.6701 -81.9821 0
29.4984 -81.4336 0
30.6115 -79.0405 0
27.3693 -81.7547 0
28.1465 -79.351 0
30.6115 -79.0405 0
31.6773 -76.3176 0
28.1465 -79.351 0
28.9028 -76.6147 0
27.3693 -81.7547 0
28.1465 -79.351 0
25.6701 -81.9821 0
26.1154 -79.5525 0
28.1465 -79.351 0
28.9028 -76.6147 0
26.1154 -79.5525 0
26.5701 -76.81 0
24.6943 -85.7893 0
25.1983 -84.0606 0
23.815 -86.0667 0
24.0112 -84.2479 0
25.1983 -84.0606 0
25.6701 -81.9821 0
24.0112 -84.2479 0
24.1581 -82.1059 0
23.815 -86.0667 0
24.0112 -84.2479 0
22.8702 -86.2688 0
22.7918 -84.3442 0
24.0112 -84.2479 0
24.1581 -82.1059 0
22.7918 -84.3442 0
22.6654 -82.1356 0
25.6701 -81.9821 0
26.1154 -79.5525 0
24.1581 -82.1059 0
24.3065 -79.6494 0
26.1154 -79.5525 0
26.5701 -76.81 0
24.3065 -79.6494 0
24.4597 -76.9007 0
24.1581 -82.1059 0
24.3065 -79.6494 0
22.6654 -82.1356 0
22.5315 -79.6535 0
24.3065 -79.6494 0
24.4597 -76.9007 0
22.5315 -79.6535 0
22.4123 -76.8854 0
22.1404 -90.1613 0
22.4812 -89.8977 0
22.1404 -90.6905 0
22.246 -90.3878 0
22.4812 -89.8977 0
22.7402 -89.1198 0
22.246 -90.3878 0
22.2499 -89.5042 0
22.1404 -90.6905 0
22.246 -90.3878 0
22.1404 -91.1968 0
21.9251 -90.8534 0
22.246 -90.3878 0
22.2499 -89.5042 0
21.9251 -90.8534 0
21.6061 -89.7087 0
22.7402 -89.1198 0
22.8655 -87.8741 0
22.2499 -89.5042 0
22.0848 -88.089 0
22.8655 -87.8741 0
22.8702 -86.2688 0
22.0848 -88.089 0
21.8178 -86.3521 0
22.2499 -89.5042 0
22.0848 -88.089 0
21.6061 -89.7087 0
21.1466 -88.1429 0
22.0848 -88.089 0
21.8178 -86.3521 0
21.1466 -88.1429 0
20.5784 -86.2993 0
22.1404 -91.1968 0
21.9251 -90.8534 0
22.1404 -91.7043 0
21.5215 -91.0499 0
21.9251 -90.8534 0
21.6061 -89.7087 0
21.5215 -91.0499 0
20.7542 -89.6673 0
22.1404 -91.7043 0
21.5215 -91.0499 0
22.1404 -91.6812 0
20.656 -90.9 0
21.5215 -91.0499 0
20.7542 -89.6673 0
20.656 -90.9 0
19.3708 -89.3429 0
21.6061 -89.7087 0
21.1466 -88.1429 0
20.7542 -89.6673 0
19.904 -88.0045 0
21.1466 -88.1429 0
20.5784 -86.2993 0
19.904 -88.0045 0
19.0466 -86.1145 0
20.7542 -89.6673 0
19.904 -88.0045 0
19.3708 -89.3429 0
18.2139 -87.6827 0
19.904 -88.0045 0
19.0466 -86.1145 0
18.2139 -87.6827 0
17.1095 -85.7931 0
22.8702 -86.2688 0
22.7918 -84.3442 0
21.8178 -86.3521 0
21.4627 -84.339 0
22.7918 -84.3442 0
22.6654 -82.1356 0
21.4627 -84.339 0
21.0798 -82.0777 0
21.8178 -86.3521 0
21.4627 -84.339 0
20.5784 -86.2993 0
19.9723 -84.2287 0
21.4627 -84.339 0
21.0798 -82.0777 0
19.9723 -84.2287 0
19.3431 -81.9197 0
22.6654 -82.1356 0
22.5315 -79.6535 0
21.0798 -82.0777 0
20.693 -79.559 0
22.5315 -79.6535 0
22.4123 -76.8854 0
20.693 -79.559 0
20.3296 -76.7701 0
21.0798 -82.0777 0
20.693 -79.559 0
19.3431 -81.9197 0
18.7279 -79.3577 0
20.693 -79.559 0
20.3296 -76.7701 0
18.7279 -79.3577 0
18.1539 -76.5665 0
20.5784 -86.2993 0
19.9723 -84.2287 0
19.0466 -86.1145 0
18.1998 -84.0004 0
19.9723 -84.2287 0
19.3431 -81.9197 0
18.1998 -84.0004 0
17.369 -81.6649 0
19.0466 -86.1145 0
18.1998 -84.0004 0
17.1095 -85.7931 0
16.0342 -83.6841 0
18.1998 -84.0004 0
17.369 -81.6649 0
16.0342 -83.6841 0
14.9816 -81.3542 0
19.3431 -81.9197 0
18.7279 -79.3577 0
17.369 -81.6649 0
16.5573 -79.1064 0
18.7279 -79.3577 0
18.1539 -76.5665 0
16.5573 -79.1064 0
15.7691 -76.3216 0
17.369 -81.6649 0
16.5573 -79.1064 0
14.9816 -81.3542 0
13.9498 -78.8023 0
16.5573 -79.1064 0
15.7691 -76.3216 0
13.9498 -78.8023 0
12.9381 -76.0246 0
12.6035 -76.3176 0
13.6694 -79.0405 0
15.378 -76.6147 0
16.1343 -79.351 0
13.6694 -79.0405 0
14.7825 -81.4336 0
16.1343 -79.351 0
16.9116 -81.7547 0
15.378 -76.6147 0
16.1343 -79.351 0
17.7107 -76.81 0
18.1654 -79.5525 0
16.1343 -79.351 0
16.9116 -81.7547 0
18.1654 -79.5525 0
18.6107 -81.9821 0
14.7825 -81.4336 0
15.9351 -83.4811 0
16.9116 -81.7547 0
17.7229 -83.8161 0
15.9351 -83.4811 0
17.1265 -85.1703 0
17.7229 -83.8161 0
18.5609 -85.5154 0
16.9116 -81.7547 0
17.7229 -83.8161 0
18.6107 -81.9821 0
19.0825 -84.0606 0
17.7229 -83.8161 0
18.5609 -85.5154 0
19.0825 -84.0606 0
19.5865 -85.7893 0
17.7107 -76.81 0
18.1654 -79.5525 0
19.8211 -76.9007 0
19.9743 -79.6494 0
18.1654 -79.5525 0
18.6107 -81.9821 0
19.9743 -79.6494 0
20.1227 -82.1059 0
19.8211 -76.9007 0
19.9743 -79.6494 0
21.8686 -76.8854 0
21.7493 -79.6535 0
19.9743 -79.6494 0
20.1227 -82.1059 0
21.7493 -79.6535 0
21.6154 -82.1356 0
18.6107 -81.9821 0
19.0825 -84.0606 0
20.1227 -82.1059 0
20.2697 -84.2479 0
19.0825 -84.0606 0
19.5865 -85.7893 0
20.2697 -84.2479 0
20.4659 -86.0667 0
20.1227 -82.1059 0
20.2697 -84.2479 0
21.6154 -82.1356 0
21.489 -84.3442 0
20.2697 -84.2479 0
20.4659 -86.0667 0
21.489 -84.3442 0
21.4107 -86.2688 0
17.1265 -85.1703 0
18.3455 -86.4978 0
18.5609 -85.5154 0
19.4339 -86.853 0
18.3455 -86.4978 0
19.5909 -87.4639 0
19.4339 -86.853 0
20.3292 -87.8269 0
18.5609 -85.5154 0
19.4339 -86.853 0
19.5865 -85.7893 0
20.1135 -87.1669 0
19.4339 -86.853 0
20.3292 -87.8269 0
20.1135 -87.1669 0
20.7129 -88.2043 0
19.5909 -87.4639 0
20.8592 -88.0546 0
20.3292 -87.8269 0
21.2333 -88.4224 0
20.8592 -88.0546 0
22.1404 -88.2537 0
21.2333 -88.4224 0
22.1404 -88.6231 0
20.3292 -87.8269 0
21.2333 -88.4224 0
20.7129 -88.2043 0
21.3987 -88.8691 0
21.2333 -88.4224 0
22.1404 -88.6231 0
21.3987 -88.8691 0
22.1404 -89.095 0
19.5865 -85.7893 0
20.1135 -87.1669 0
20.4659 -86.0667 0
20.7402 -87.5365 0
20.1135 -87.1669 0
20.7129 -88.2043 0
20.7402 -87.5365 0
21.1069 -88.6751 0
20.4659 -86.0667 0
20.7402 -87.5365 0
21.4107 -86.2688 0
21.4153 -87.8741 0
20.7402 -87.5365 0
21.1069 -88.6751 0
21.4153 -87.8741 0
21.5407 -89.1198 0
20.7129 -88.2043 0
21.3987 -88.8691 0
21.1069 -88.6751 0
21.5907 -89.3872 0
21.3987 -88.8691 0
22.1404 -89.095 0
21.5907 -89.3872 0
22.1404 -89.633 0
21.1069 -88.6751 0
21.5907 -89.3872 0
21.5407 -89.1198 0
21.7996 -89.8977 0
21.5907 -89.3872 0
22.1404 -89.633 0
21.7996 -89.8977 0
22.1404 -90.1613 0
21.8686 -76.8854 0
21.7493 -79.6535 0
23.9513 -76.7701 0
23.5878 -79.559 0
21.7493 -79.6535 0
21.6154 -82.1356 0
23.5878 -79.559 0
23.2011 -82.0777 0
23.9513 -76.7701 0
23.5878 -79.559 0
26.127 -76.5665 0
25.553 -79.3577 0
23.5878 -79.559 0
23.2011 -82.0777 0
25.553 -79.3577 0
24.9377 -81.9197 0
21.6154 -82.1356 0
21.489 -84.3442 0
23.2011 -82.0777 0
22.8181 -84.339 0
21.489 -84.3442 0
21.4107 -86.2688 0
22.8181 -84.339 0
22.4631 -86.3521 0
23.2011 -82.0777 0
22.8181 -84.339 0
24.9377 -81.9197 0
24.3085 -84.2287 0
22.8181 -84.339 0
22.4631 -86.3521 0
24.3085 -84.2287 0
23.7025 -86.2993 0
26.127 -76.5665 0
25.553 -79.3577 0
28.5117 -76.3216 0
27.7235 -79.1064 0
25.553 -79.3577 0
24.9377 -81.9197 0
27.7235 -79.1064 0
26.9118 -81.6649 0
28.5117 -76.3216 0
27.7235 -79.1064 0
31.3427 -76.0246 0
30.331 -78.8023 0
27.7235 -79.1064 0
26.9118 -81.6649 0
30.331 -78.8023 0
29.2993 -81.3542 0
24.9377 -81.9197 0
24.3085 -84.2287 0
26.9118 -81.6649 0
26.081 -84.0004 0
24.3085 -84.2287 0
23.7025 -86.2993 0
26.081 -84.0004 0
25.2343 -86.1145 0
26.9118 -81.6649 0
26.081 -84.0004 0
29.2993 -81.3542 0
28.2466 -83.6841 0
26.081 -84.0004 0
25.2343 -86.1145 0
28.2466 -83.6841 0
27.1714 -85.7931 0
21.4107 -86.2688 0
21.4153 -87.8741 0
22.4631 -86.3521 0
22.196 -88.089 0
21.4153 -87.8741 0
21.5407 -89.1198 0
22.196 -88.089 0
22.0309 -89.5042 0
22.4631 -86.3521 0
22.196 -88.089 0
23.7025 -86.2993 0
23.1343 -88.1429 0
22.196 -88.089 0
22.0309 -89.5042 0
23.1343 -88.1429 0
22.6747 -89.7087 0
21.5407 -89.1198 0
21.7996 -89.8977 0
22.0309 -89.5042 0
22.0349 -90.3878 0
21.7996 -89.8977 0
22.1404 -90.1613 0
22.0349 -90.3878 0
22.1404 -90.6905 0
22.0309 -89.5042 0
22.0349 -90.3878 0
22.6747 -89.7087 0
22.3557 -90.8534 0
22.0349 -90.3878 0
22.1404 -90.6905 0
22.3557 -90.8534 0
22.1404 -91.1968 0
23.7025 -86.2993 0
23.1343 -88.1429 0
25.2343 -86.1145 0
24.3768 -88.0045 0
23.1343 -88.1429 0
22.6747 -89.7087 0
24.3768 -88.0045 0
23.5266 -89.6673 0
25.2343 -86.1145 0
24.3768 -88.0045 0
27.1714 -85.7931 0
26.067 -87.6827 0
24.3768 -88.0045 0
23.5266 -89.6673 0
26.067 -87.6827 0
24.91 -89.3429 0
22.6747 -89.7087 0
22.3557 -90.8534 0
23.5266 -89.6673 0
22.7593 -91.0499 0
22.3557 -90.8534 0
22.1404 -91.1968 0
22.7593 -91.0499 0
22.1404 -91.7043 0
23.5266 -89.6673 0
22.7593 -91.0499 0
24.91 -89.3429 0
23.6249 -90.9 0
22.7593 -91.0499 0
22.1404 -91.7043 0
23.6249 -90.9 0
22.1404 -91.6812 0
5.48074 -45.4789 0
6.25495 -50.0945 0
10.0913 -45.7003 0
10.6717 -50.3246 0
6.25495 -50.0945 0
7.06105 -54.5081 0
10.6717 -50.3246 0
11.2762 -54.7466 0
10.0913 -45.7003 0
10.6717 -50.3246 0
14.1697 -45.8609 0
14.5717 -50.4842 0
10.6717 -50.3246 0
11.2762 -54.7466 0
14.5717 -50.4842 0
14.9904 -54.9152 0
7.06105 -54.5081 0
7.89651 -58.7183 0
11.2762 -54.7466 0
11.908 -58.967 0
7.89651 -58.7183 0
8.76783 -62.7145 0
11.908 -58.967 0
12.5586 -62.9723 0
11.2762 -54.7466 0
11.908 -58.967 0
14.9904 -54.9152 0
15.4251 -59.1364 0
11.908 -58.967 0
12.5586 -62.9723 0
15.4251 -59.1364 0
15.8731 -63.1325 0
14.1697 -45.8609 0
14.5717 -50.4842 0
18.0917 -45.935 0
18.2984 -50.5779 0
14.5717 -50.4842 0
14.9904 -54.9152 0
18.2984 -50.5779 0