# vtk DataFile Version 3.0
#This file was generated by the deal.II library on 2020/9/2 at 8:39:58
ASCII
DATASET UNSTRUCTURED_GRID

POINTS 1536 double
5 0 0
5.125 0 0
5 0.125 0
5.125 0.125 0
5.125 0 0
5.25 0 0
5.125 0.125 0
5.25 0.125 0
5 0.125 0
5.125 0.125 0
5 0.25 0
5.125 0.25 0
5.125 0.125 0
5.25 0.125 0
5.125 0.25 0
5.25 0.25 0
5.25 0 0
5.375 0 0
5.25 0.125 0
5.375 0.125 0
5.375 0 0
5.5 0 0
5.375 0.125 0
5.5 0.125 0
5.25 0.125 0
5.375 0.125 0
5.25 0.25 0
5.375 0.25 0
5.375 0.125 0
5.5 0.125 0
5.375 0.25 0
5.5 0.25 0
5 0.25 0
5.125 0.25 0
5 0.375 0
5.125 0.375 0
5.125 0.25 0
5.25 0.25 0
5.125 0.375 0
5.25 0.375 0
5 0.375 0
5.125 0.375 0
5 0.5 0
5.125 0.5 0
5.125 0.375 0
5.25 0.375 0
5.125 0.5 0
5.25 0.5 0
5.25 0.25 0
5.375 0.25 0
5.25 0.375 0
5.375 0.375 0
5.375 0.25 0
5.5 0.25 0
5.375 0.375 0
5.5 0.375 0
5.25 0.375 0
5.375 0.375 0
5.25 0.5 0
5.375 0.5 0
5.375 0.375 0
5.5 0.375 0
5.375 0.5 0
5.5 0.5 0
5.5 0 0
5.625 0 0
5.5 0.125 0
5.625 0.125 0
5.625 0 0
5.75 0 0
5.625 0.125 0
5.75 0.125 0
5.5 0.125 0
5.625 0.125 0
5.5 0.25 0
5.625 0.25 0
5.625 0.125 0
5.75 0.125 0
5.625 0.25 0
5.75 0.25 0
5.75 0 0
5.875 0 0
5.75 0.125 0
5.875 0.125 0
5.875 0 0
6 0 0
5.875 0.125 0
6 0.125 0
5.75 0.125 0
5.875 0.125 0
5.75 0.25 0
5.875 0.25 0
5.875 0.125 0
6 0.125 0
5.875 0.25 0
6 0.25 0
5.5 0.25 0
5.625 0.25 0
5.5 0.375 0
5.625 0.375 0
5.625 0.25 0
5.75 0.25 0
5.625 0.375 0
5.75 0.375 0
5.5 0.375 0
5.625 0.375 0
5.5 0.5 0
5.625 0.5 0
5.625 0.375 0
5.75 0.375 0
5.625 0.5 0
5.75 0.5 0
5.75 0.25 0
5.875 0.25 0
5.75 0.375 0
5.875 0.375 0
5.875 0.25 0
6 0.25 0
5.875 0.375 0
6 0.375 0
5.75 0.375 0
5.875 0.375 0
5.75 0.5 0
5.875 0.5 0
5.875 0.375 0
6 0.375 0
5.875 0.5 0
6 0.5 0
5 0.5 0
5.125 0.5 0
5 0.625 0
5.125 0.625 0
5.125 0.5 0
5.25 0.5 0
5.125 0.625 0
5.25 0.625 0
5 0.625 0
5.125 0.625 0
5 0.75 0
5.125 0.75 0
5.125 0.625 0
5.25 0.625 0
5.125 0.75 0
5.25 0.75 0
5.25 0.5 0
5.375 0.5 0
5.25 0.625 0
5.375 0.625 0
5.375 0.5 0
5.5 0.5 0
5.375 0.625 0
5.5 0.625 0
5.25 0.625 0
5.375 0.625 0
5.25 0.75 0
5.375 0.75 0
5.375 0.625 0
5.5 0.625 0
5.375 0.75 0
5.5 0.75 0
5 0.75 0
5.125 0.75 0
5 0.875 0
5.125 0.875 0
5.125 0.75 0
5.25 0.75 0
5.125 0.875 0
5.25 0.875 0
5 0.875 0
5.125 0.875 0
5 1 0
5.125 1 0
5.125 0.875 0
5.25 0.875 0
5.125 1 0
5.25 1 0
5.25 0.75 0
5.375 0.75 0
5.25 0.875 0
5.375 0.875 0
5.375 0.75 0
5.5 0.75 0
5.375 0.875 0
5.5 0.875 0
5.25 0.875 0
5.375 0.875 0
5.25 1 0
5.375 1 0
5.375 0.875 0
5.5 0.875 0
5.375 1 0
5.5 1 0
5.5 0.5 0
5.625 0.5 0
5.5 0.625 0
5.625 0.625 0
5.625 0.5 0
5.75 0.5 0
5.625 0.625 0
5.75 0.625 0
5.5 0.625 0
5.625 0.625 0
5.5 0.75 0
5.625 0.75 0
5.625 0.625 0
5.75 0.625 0
5.625 0.75 0
5.75 0.75 0
5.75 0.5 0
5.875 0.5 0
5.75 0.625 0
5.875 0.625 0
5.875 0.5 0
6 0.5 0
5.875 0.625 0
6 0.625 0
5.75 0.625 0
5.875 0.625 0
5.75 0.75 0
5.875 0.75 0
5.875 0.625 0
6 0.625 0
5.875 0.75 0
6 0.75 0
5.5 0.75 0
5.625 0.75 0
5.5 0.875 0
5.625 0.875 0
5.625 0.75 0
5.75 0.75 0
5.625 0.875 0
5.75 0.875 0
5.5 0.875 0
5.625 0.875 0
5.5 1 0
5.625 1 0
5.625 0.875 0
5.75 0.875 0
5.625 1 0
5.75 1 0
5.75 0.75 0
5.875 0.75 0
5.75 0.875 0
5.875 0.875 0
5.875 0.75 0
6 0.75 0
5.875 0.875 0
6 0.875 0
5.75 0.875 0
5.875 0.875 0
5.75 1 0
5.875 1 0
5.875 0.875 0
6 0.875 0
5.875 1 0
6 1 0
4 0 0
4.125 0 0
4 0.125 0
4.125 0.125 0
4.125 0 0
4.25 0 0
4.125 0.125 0
4.25 0.125 0
4 0.125 0
4.125 0.125 0
4 0.25 0
4.125 0.25 0
4.125 0.125 0
4.25 0.125 0
4.125 0.25 0
4.25 0.25 0
4.25 0 0
4.375 0 0
4.25 0.125 0
4.375 0.125 0
4.375 0 0
4.5 0 0
4.375 0.125 0
4.5 0.125 0
4.25 0.125 0
4.375 0.125 0
4.25 0.25 0
4.375 0.25 0
4.375 0.125 0
4.5 0.125 0
4.375 0.25 0
4.5 0.25 0
4 0.25 0
4.125 0.25 0
4 0.375 0
4.125 0.375 0
4.125 0.25 0
4.25 0.25 0
4.125 0.375 0
4.25 0.375 0
4 0.375 0
4.125 0.375 0
4 0.5 0
4.125 0.5 0
4.125 0.375 0
4.25 0.375 0
4.125 0.5 0
4.25 0.5 0
4.25 0.25 0
4.375 0.25 0
4.25 0.375 0
4.375 0.375 0
4.375 0.25 0
4.5 0.25 0
4.375 0.375 0
4.5 0.375 0
4.25 0.375 0
4.375 0.375 0
4.25 0.5 0
4.375 0.5 0
4.375 0.375 0
4.5 0.375 0
4.375 0.5 0
4.5 0.5 0
4.5 0 0
4.625 0 0
4.5 0.125 0
4.625 0.125 0
4.625 0 0
4.75 0 0
4.625 0.125 0
4.75 0.125 0
4.5 0.125 0
4.625 0.125 0
4.5 0.25 0
4.625 0.25 0
4.625 0.125 0
4.75 0.125 0
4.625 0.25 0
4.75 0.25 0
4.75 0 0
4.875 0 0
4.75 0.125 0
4.875 0.125 0
4.875 0 0
5 0 0
4.875 0.125 0
5 0.125 0
4.75 0.125 0
4.875 0.125 0
4.75 0.25 0
4.875 0.25 0
4.875 0.125 0
5 0.125 0
4.875 0.25 0
5 0.25 0
4.5 0.25 0
4.625 0.25 0
4.5 0.375 0
4.625 0.375 0
4.625 0.25 0
4.75 0.25 0
4.625 0.375 0
4.75 0.375 0
4.5 0.375 0
4.625 0.375 0
4.5 0.5 0
4.625 0.5 0
4.625 0.375 0
4.75 0.375 0
4.625 0.5 0
4.75 0.5 0
4.75 0.25 0
4.875 0.25 0
4.75 0.375 0
4.875 0.375 0
4.875 0.25 0
5 0.25 0
4.875 0.375 0
5 0.375 0
4.75 0.375 0
4.875 0.375 0
4.75 0.5 0
4.875 0.5 0
4.875 0.375 0
5 0.375 0
4.875 0.5 0
5 0.5 0
4 0.5 0
4.125 0.5 0
4 0.625 0
4.125 0.625 0
4.125 0.5 0
4.25 0.5 0
4.125 0.625 0
4.25 0.625 0
4 0.625 0
4.125 0.625 0
4 0.75 0
4.125 0.75 0
4.125 0.625 0
4.25 0.625 0
4.125 0.75 0
4.25 0.75 0
4.25 0.5 0
4.375 0.5 0
4.25 0.625 0
4.375 0.625 0
4.375 0.5 0
4.5 0.5 0
4.375 0.625 0
4.5 0.625 0
4.25 0.625 0
4.375 0.625 0
4.25 0.75 0
4.375 0.75 0
4.375 0.625 0
4.5 0.625 0
4.375 0.75 0
4.5 0.75 0
4 0.75 0
4.125 0.75 0
4 0.875 0
4.125 0.875 0
4.125 0.75 0
4.25 0.75 0
4.125 0.875 0
4.25 0.875 0
4 0.875 0
4.125 0.875 0
4 1 0
4.125 1 0
4.125 0.875 0
4.25 0.875 0
4.125 1 0
4.25 1 0
4.25 0.75 0
4.375 0.75 0
4.25 0.875 0
4.375 0.875 0
4.375 0.75 0
4.5 0.75 0
4.375 0.875 0
4.5 0.875 0
4.25 0.875 0
4.375 0.875 0
4.25 1 0
4.375 1 0
4.375 0.875 0
4.5 0.875 0
4.375 1 0
4.5 1 0
4.5 0.5 0
4.625 0.5 0
4.5 0.625 0
4.625 0.625 0
4.625 0.5 0
4.75 0.5 0
4.625 0.625 0
4.75 0.625 0
4.5 0.625 0
4.625 0.625 0
4.5 0.75 0
4.625 0.75 0
4.625 0.625 0
4.75 0.625 0
4.625 0.75 0
4.75 0.75 0
4.75 0.5 0
4.875 0.5 0
4.75 0.625 0
4.875 0.625 0
4.875 0.5 0
5 0.5 0
4.875 0.625 0
5 0.625 0
4.75 0.625 0
4.875 0.625 0
4.75 0.75 0
4.875 0.75 0
4.875 0.625 0
5 0.625 0
4.875 0.75 0
5 0.75 0
4.5 0.75 0
4.625 0.75 0
4.5 0.875 0
4.625 0.875 0
4.625 0.75 0
4.75 0.75 0
4.625 0.875 0
4.75 0.875 0
4.5 0.875 0
4.625 0.875 0
4.5 1 0
4.625 1 0
4.625 0.875 0
4.75 0.875 0
4.625 1 0
4.75 1 0
4.75 0.75 0
4.875 0.75 0
4.75 0.875 0
4.875 0.875 0
4.875 0.75 0
5 0.75 0
4.875 0.875 0
5 0.875 0
4.75 0.875 0
4.875 0.875 0
4.75 1 0
4.875 1 0
4.875 0.875 0
5 0.875 0
4.875 1 0
5 1 0
3 0 0
3.125 0 0
3 0.125 0
3.125 0.125 0
3.125 0 0
3.25 0 0
3.125 0.125 0
3.25 0.125 0
3 0.125 0
3.125 0.125 0
3 0.25 0
3.125 0.25 0
3.125 0.125 0
3.25 0.125 0
3.125 0.25 0
3.25 0.25 0
3.25 0 0
3.375 0 0
3.25 0.125 0
3.375 0.125 0
3.375 0 0
3.5 0 0
3.375 0.125 0
3.5 0.125 0
3.25 0.125 0
3.375 0.125 0
3.25 0.25 0
3.375 0.25 0
3.375 0.125 0
3.5 0.125 0
3.375 0.25 0
3.5 0.25 0
3 0.25 0
3.125 0.25 0
3 0.375 0
3.125 0.375 0
3.125 0.25 0
3.25 0.25 0
3.125 0.375 0
3.25 0.375 0
3 0.375 0
3.125 0.375 0
3 0.5 0
3.125 0.5 0
3.125 0.375 0
3.25 0.375 0
3.125 0.5 0
3.25 0.5 0
3.25 0.25 0
3.375 0.25 0
3.25 0.375 0
3.375 0.375 0
3.375 0.25 0
3.5 0.25 0
3.375 0.375 0
3.5 0.375 0
3.25 0.375 0
3.375 0.375 0
3.25 0.5 0
3.375 0.5 0
3.375 0.375 0
3.5 0.375 0
3.375 0.5 0
3.5 0.5 0
3.5 0 0
3.625 0 0
3.5 0.125 0
3.625 0.125 0
3.625 0 0
3.75 0 0
3.625 0.125 0
3.75 0.125 0
3.5 0.125 0
3.625 0.125 0
3.5 0.25 0
3.625 0.25 0
3.625 0.125 0
3.75 0.125 0
3.625 0.25 0
3.75 0.25 0
3.75 0 0
3.875 0 0
3.75 0.125 0
3.875 0.125 0
3.875 0 0
4 0 0
3.875 0.125 0
4 0.125 0
3.75 0.125 0
3.875 0.125 0
3.75 0.25 0
3.875 0.25 0
3.875 0.125 0
4 0.125 0
3.875 0.25 0
4 0.25 0
3.5 0.25 0
3.625 0.25 0
3.5 0.375 0
3.625 0.375 0
3.625 0.25 0
3.75 0.25 0
3.625 0.375 0
3.75 0.375 0
3.5 0.375 0
3.625 0.375 0
3.5 0.5 0
3.625 0.5 0
3.625 0.375 0
3.75 0.375 0
3.625 0.5 0
3.75 0.5 0
3.75 0.25 0
3.875 0.25 0
3.75 0.375 0
3.875 0.375 0
3.875 0.25 0
4 0.25 0
3.875 0.375 0
4 0.375 0
3.75 0.375 0
3.875 0.375 0
3.75 0.5 0
3.875 0.5 0
3.875 0.375 0
4 0.375 0
3.875 0.5 0
4 0.5 0
3 0.5 0
3.125 0.5 0
3 0.625 0
3.125 0.625 0
3.125 0.5 0
3.25 0.5 0
3.125 0.625 0
3.25 0.625 0
3 0.625 0
3.125 0.625 0
3 0.75 0
3.125 0.75 0
3.125 0.625 0
3.25 0.625 0
3.125 0.75 0
3.25 0.75 0
3.25 0.5 0
3.375 0.5 0
3.25 0.625 0
3.375 0.625 0
3.375 0.5 0
3.5 0.5 0
3.375 0.625 0
3.5 0.625 0
3.25 0.625 0
3.375 0.625 0
3.25 0.75 0
3.375 0.75 0
3.375 0.625 0
3.5 0.625 0
3.375 0.75 0
3.5 0.75 0
3 0.75 0
3.125 0.75 0
3 0.875 0
3.125 0.875 0
3.125 0.75 0
3.25 0.75 0
3.125 0.875 0
3.25 0.875 0
3 0.875 0
3.125 0.875 0
3 1 0
3.125 1 0
3.125 0.875 0
3.25 0.875 0
3.125 1 0
3.25 1 0
3.25 0.75 0
3.375 0.75 0
3.25 0.875 0
3.375 0.875 0
3.375 0.75 0
3.5 0.75 0
3.375 0.875 0
3.5 0.875 0
3.25 0.875 0
3.375 0.875 0
3.25 1 0
3.375 1 0
3.375 0.875 0
3.5 0.875 0
3.375 1 0
3.5 1 0
3.5 0.5 0
3.625 0.5 0
3.5 0.625 0
3.625 0.625 0
3.625 0.5 0
3.75 0.5 0
3.625 0.625 0
3.75 0.625 0
3.5 0.625 0
3.625 0.625 0
3.5 0.75 0
3.625 0.75 0
3.625 0.625 0
3.75 0.625 0
3.625 0.75 0
3.75 0.75 0
3.75 0.5 0
3.875 0.5 0
3.75 0.625 0
3.875 0.625 0
3.875 0.5 0
4 0.5 0
3.875 0.625 0
4 0.625 0
3.75 0.625 0
3.875 0.625 0
3.75 0.75 0
3.875 0.75 0
3.875 0.625 0
4 0.625 0
3.875 0.75 0
4 0.75 0
3.5 0.75 0
3.625 0.75 0
3.5 0.875 0
3.625 0.875 0
3.625 0.75 0
3.75 0.75 0
3.625 0.875 0
3.75 0.875 0
3.5 0.875 0
3.625 0.875 0
3.5 1 0
3.625 1 0
3.625 0.875 0
3.75 0.875 0
3.625 1 0
3.75 1 0
3.75 0.75 0
3.875 0.75 0
3.75 0.875 0
3.875 0.875 0
3.875 0.75 0
4 0.75 0
3.875 0.875 0
4 0.875 0
3.75 0.875 0
3.875 0.875 0
3.75 1 0
3.875 1 0
3.875 0.875 0
4 0.875 0
3.875 1 0
4 1 0
2 0 0
2.125 0 0
2 0.125 0
2.125 0.125 0
2.125 0 0
2.25 0 0
2.125 0.125 0
2.25 0.125 0
2 0.125 0
2.125 0.125 0
2 0.25 0
2.125 0.25 0
2.125 0.125 0
2.25 0.125 0
2.125 0.25 0
2.25 0.25 0
2.25 0 0
2.375 0 0
2.25 0.125 0
2.375 0.125 0
2.375 0 0
2.5 0 0
2.375 0.125 0
2.5 0.125 0
2.25 0.125 0
2.375 0.125 0
2.25 0.25 0
2.375 0.25 0
2.375 0.125 0
2.5 0.125 0
2.375 0.25 0
2.5 0.25 0
2 0.25 0
2.125 0.25 0
2 0.375 0
2.125 0.375 0
2.125 0.25 0
2.25 0.25 0
2.125 0.375 0
2.25 0.375 0
2 0.375 0
2.125 0.375 0
2 0.5 0
2.125 0.5 0
2.125 0.375 0
2.25 0.375 0
2.125 0.5 0
2.25 0.5 0
2.25 0.25 0
2.375 0.25 0
2.25 0.375 0
2.375 0.375 0
2.375 0.25 0
[...]
POINT_DATA 1536
VECTORS displacements double
36.1951 -41.7926 0
36.8714 -37.4168 0
32.0047 -41.9937 0
32.5104 -37.6068 0
36.8714 -37.4168 0
37.5149 -32.8751 0
32.5104 -37.6068 0
32.9868 -33.0542 0
32.0047 -41.9937 0
32.5104 -37.6068 0
28.0971 -42.1307 0
28.4324 -37.7324 0
32.5104 -37.6068 0
32.9868 -33.0542 0
28.4324 -37.7324 0
28.7414 -33.1666 0
37.5149 -32.8751 0
38.1306 -28.1727 0
32.9868 -33.0542 0
33.4328 -28.3413 0
38.1306 -28.1727 0
38.7285 -23.3081 0
33.4328 -28.3413 0
33.846 -23.468 0
32.9868 -33.0542 0
33.4328 -28.3413 0
28.7414 -33.1666 0
29.0186 -28.4382 0
33.4328 -28.3413 0
33.846 -23.468 0
29.0186 -28.4382 0
29.2542 -23.5446 0
28.0971 -42.1307 0
28.4324 -37.7324 0
24.3563 -42.2007 0
24.5168 -37.7909 0
28.4324 -37.7324 0
28.7414 -33.1666 0
24.5168 -37.7909 0
24.6568 -33.2108 0
24.3563 -42.2007 0
24.5168 -37.7909 0
20.6897 -42.2051 0
20.6746 -37.7859 0
24.5168 -37.7909 0
24.6568 -33.2108 0
20.6746 -37.7859 0
20.6469 -33.1948 0
28.7414 -33.1666 0
29.0186 -28.4382 0
24.6568 -33.2108 0
24.7688 -28.4654 0
29.0186 -28.4382 0
29.2542 -23.5446 0
24.7688 -28.4654 0
24.8416 -23.5545 0
24.6568 -33.2108 0
24.7688 -28.4654 0
20.6469 -33.1948 0
20.6003 -28.4385 0
24.7688 -28.4654 0
24.8416 -23.5545 0
20.6003 -28.4385 0
20.526 -23.5234 0
38.7285 -23.3081 0
39.3279 -18.2692 0
33.846 -23.468 0
34.2178 -18.415 0
39.3279 -18.2692 0
39.972 -12.978 0
34.2178 -18.415 0
34.519 -13.1441 0
33.846 -23.468 0
34.2178 -18.415 0
29.2542 -23.5446 0
29.4307 -18.4699 0
34.2178 -18.415 0
34.519 -13.1441 0
29.4307 -18.4699 0
29.5121 -13.1394 0
39.972 -12.978 0
40.7257 -7.40009 0
34.519 -13.1441 0
34.6015 -7.33617 0
40.7257 -7.40009 0
41.1597 0 0
34.6015 -7.33617 0
34.7653 -1.34731 0
34.519 -13.1441 0
34.6015 -7.33617 0
29.5121 -13.1394 0
29.4978 -7.56112 0
34.6015 -7.33617 0
34.7653 -1.34731 0
29.4978 -7.56112 0
29.6466 -2.30277 0
29.2542 -23.5446 0
29.4307 -18.4699 0
24.8416 -23.5545 0
24.8587 -18.4646 0
29.4307 -18.4699 0
29.5121 -13.1394 0
24.8587 -18.4646 0
24.8087 -13.2041 0
24.8416 -23.5545 0
24.8587 -18.4646 0
20.526 -23.5234 0
20.4215 -18.4684 0
24.8587 -18.4646 0
24.8087 -13.2041 0
20.4215 -18.4684 0
20.3363 -13.3379 0
29.5121 -13.1394 0
29.4978 -7.56112 0
24.8087 -13.2041 0
24.8163 -7.92953 0
29.4978 -7.56112 0
29.6466 -2.30277 0
24.8163 -7.92953 0
24.9446 -2.97461 0
24.8087 -13.2041 0
24.8163 -7.92953 0
20.3363 -13.3379 0
20.332 -8.26552 0
24.8163 -7.92953 0
24.9446 -2.97461 0
20.332 -8.26552 0
20.4264 -3.48439 0
20.6897 -42.2051 0
20.6746 -37.7859 0
17.0214 -42.1486 0
16.8326 -37.7247 0
20.6746 -37.7859 0
20.6469 -33.1948 0
16.8326 -37.7247 0
16.6419 -33.1306 0
17.0214 -42.1486 0
16.8326 -37.7247 0
13.2772 -42.0388 0
12.922 -37.618 0
16.8326 -37.7247 0
16.6419 -33.1306 0
12.922 -37.618 0
12.582 -33.0327 0
20.6469 -33.1948 0
20.6003 -28.4385 0
16.6419 -33.1306 0
16.4474 -28.3775 0
20.6003 -28.4385 0
20.526 -23.5234 0
16.4474 -28.3775 0
16.2528 -23.4846 0
16.6419 -33.1306 0
16.4474 -28.3775 0
12.582 -33.0327 0
12.2629 -28.2978 0
16.4474 -28.3775 0
16.2528 -23.4846 0
12.2629 -28.2978 0
11.9808 -23.4391 0
13.2772 -42.0388 0
12.922 -37.618 0
9.38125 -41.8843 0
8.87597 -37.473 0
12.922 -37.618 0
12.582 -33.0327 0
8.87597 -37.473 0
8.40609 -32.9036 0
9.38125 -41.8843 0
8.87597 -37.473 0
5.20509 -41.6845 0
4.56171 -37.2884 0
8.87597 -37.473 0
8.40609 -32.9036 0
4.56171 -37.2884 0
3.98058 -32.7395 0
12.582 -33.0327 0
12.2629 -28.2978 0
8.40609 -32.9036 0
7.98555 -28.194 0
12.2629 -28.2978 0
11.9808 -23.4391 0
7.98555 -28.194 0
7.63326 -23.373 0
8.40609 -32.9036 0
7.98555 -28.194 0
3.98058 -32.7395 0
3.46924 -28.0583 0
7.98555 -28.194 0
7.63326 -23.373 0
3.46924 -28.0583 0
3.03691 -23.2685 0
20.526 -23.5234 0
20.4215 -18.4684 0
16.2528 -23.4846 0
16.081 -18.4908 0
20.4215 -18.4684 0
20.3363 -13.3379 0
16.081 -18.4908 0
15.9708 -13.4693 0
16.2528 -23.4846 0
16.081 -18.4908 0
11.9808 -23.4391 0
11.761 -18.504 0
16.081 -18.4908 0
15.9708 -13.4693 0
11.761 -18.504 0
11.6196 -13.5586 0
20.3363 -13.3379 0
20.332 -8.26552 0
15.9708 -13.4693 0
15.9464 -8.52587 0
20.332 -8.26552 0
20.4264 -3.48439 0
15.9464 -8.52587 0
16.0072 -3.85405 0
15.9708 -13.4693 0
15.9464 -8.52587 0
11.6196 -13.5586 0
11.569 -8.69811 0
15.9464 -8.52587 0
16.0072 -3.85405 0
11.569 -8.69811 0
11.59 -4.06354 0
11.9808 -23.4391 0
11.761 -18.504 0
7.63326 -23.373 0
7.35983 -18.4809 0
11.761 -18.504 0
11.6196 -13.5586 0
7.35983 -18.4809 0
7.17819 -13.5837 0
7.63326 -23.373 0
7.35983 -18.4809 0
3.03691 -23.2685 0
2.70996 -18.4119 0
7.35983 -18.4809 0
7.17819 -13.5837 0
2.70996 -18.4119 0
2.51977 -13.558 0
11.6196 -13.5586 0
11.569 -8.69811 0
7.17819 -13.5837 0
7.09435 -8.77658 0
11.569 -8.69811 0
11.59 -4.06354 0
7.09435 -8.77658 0
7.08001 -4.12714 0
7.17819 -13.5837 0
7.09435 -8.77658 0
2.51977 -13.558 0
2.4605 -8.78961 0
7.09435 -8.77658 0
7.08001 -4.12714 0
2.4605 -8.78961 0
2.45762 -4.13027 0
29.5049 -69.7624 0
30.4661 -67.0426 0
26.9964 -70.0458 0
27.7089 -67.3161 0
30.4661 -67.0426 0
31.3914 -64.0794 0
27.7089 -67.3161 0
28.3982 -64.3431 0
26.9964 -70.0458 0
27.7089 -67.3161 0
24.7562 -70.242 0
25.2225 -67.5062 0
27.7089 -67.3161 0
28.3982 -64.3431 0
25.2225 -67.5062 0
25.6776 -64.5273 0
31.3914 -64.0794 0
32.2812 -60.8846 0
28.3982 -64.3431 0
29.0634 -61.1383 0
32.2812 -60.8846 0
33.1354 -57.4688 0
29.0634 -61.1383 0
29.704 -57.7125 0
28.3982 -64.3431 0
29.0634 -61.1383 0
25.6776 -64.5273 0
26.1205 -61.3163 0
29.0634 -61.1383 0
29.704 -57.7125 0
26.1205 -61.3163 0
26.5497 -57.8838 0
24.7562 -70.242 0
25.2225 -67.5062 0
22.7272 -70.3494 0
22.943 -67.6104 0
25.2225 -67.5062 0
25.6776 -64.5273 0
22.943 -67.6104 0
23.1589 -64.6293 0
22.7272 -70.3494 0
22.943 -67.6104 0
20.7757 -70.3697 0
20.7447 -67.6299 0
22.943 -67.6104 0
23.1589 -64.6293 0
20.7447 -67.6299 0
20.7232 -64.6499 0
25.6776 -64.5273 0
26.1205 -61.3163 0
23.1589 -64.6293 0
23.3736 -61.416 0
26.1205 -61.3163 0
26.5497 -57.8838 0
23.3736 -61.416 0
23.5854 -57.9804 0
23.1589 -64.6293 0
23.3736 -61.416 0
20.7232 -64.6499 0
20.7099 -61.4378 0
23.3736 -61.416 0
23.5854 -57.9804 0
20.7099 -61.4378 0
20.7032 -58.0024 0
33.1354 -57.4688 0
33.9541 -53.8422 0
29.704 -57.7125 0
30.3192 -54.0755 0
33.9541 -53.8422 0
34.737 -50.0143 0
30.3192 -54.0755 0
30.9083 -50.2372 0
29.704 -57.7125 0
30.3192 -54.0755 0
26.5497 -57.8838 0
26.9636 -54.2396 0
30.3192 -54.0755 0
30.9083 -50.2372 0
26.9636 -54.2396 0
27.3606 -50.3932 0
34.737 -50.0143 0
35.484 -45.9947 0
30.9083 -50.2372 0
31.4704 -46.2068 0
35.484 -45.9947 0
36.1951 -41.7926 0
31.4704 -46.2068 0
32.0047 -41.9937 0
30.9083 -50.2372 0
31.4704 -46.2068 0
27.3606 -50.3932 0
27.739 -46.3539 0
31.4704 -46.2068 0
32.0047 -41.9937 0
27.739 -46.3539 0
28.0971 -42.1307 0
26.5497 -57.8838 0
26.9636 -54.2396 0
23.5854 -57.9804 0
23.7919 -54.3318 0
26.9636 -54.2396 0
27.3606 -50.3932 0
23.7919 -54.3318 0
23.9909 -50.4797 0
23.5854 -57.9804 0
23.7919 -54.3318 0
20.7032 -58.0024 0
20.7006 -54.3525 0
23.7919 -54.3318 0
23.9909 -50.4797 0
20.7006 -54.3525 0
20.6994 -50.4969 0
27.3606 -50.3932 0
27.739 -46.3539 0
23.9909 -50.4797 0
24.1799 -46.4331 0
27.739 -46.3539 0
28.0971 -42.1307 0
24.1799 -46.4331 0
24.3563 -42.2007 0
23.9909 -50.4797 0
24.1799 -46.4331 0
20.6994 -50.4969 0
20.6968 -46.4448 0
24.1799 -46.4331 0
24.3563 -42.2007 0
20.6968 -46.4448 0
20.6897 -42.2051 0
20.7757 -70.3697 0
20.7447 -67.6299 0
18.8013 -70.3072 0
18.5318 -67.5689 0
20.7447 -67.6299 0
20.7232 -64.6499 0
18.5318 -67.5689 0
18.2785 -64.5928 0
18.8013 -70.3072 0
18.5318 -67.5689 0
16.7113 -70.1673 0
16.2135 -67.4333 0
18.5318 -67.5689 0
18.2785 -64.5928 0
16.2135 -67.4333 0
15.7367 -64.4635 0
20.7232 -64.6499 0
20.7099 -61.4378 0
18.2785 -64.5928 0
18.041 -61.385 0
20.7099 -61.4378 0
20.7032 -58.0024 0
18.041 -61.385 0
17.8177 -57.9529 0
18.2785 -64.5928 0
18.041 -61.385 0
15.7367 -64.4635 0
15.2807 -61.2622 0
18.041 -61.385 0
17.8177 -57.9529 0
15.2807 -61.2622 0
14.8448 -57.8357 0
16.7113 -70.1673 0
16.2135 -67.4333 0
14.394 -69.9573 0
13.6796 -67.2301 0
16.2135 -67.4333 0
15.7367 -64.4635 0
13.6796 -67.2301 0
12.9892 -64.268 0
14.394 -69.9573 0
13.6796 -67.2301 0
11.8588 -69.6761 0
10.914 -66.9572 0
13.6796 -67.2301 0
12.9892 -64.268 0
10.914 -66.9572 0
9.99633 -64.0039 0
15.7367 -64.4635 0
15.2807 -61.2622 0
12.9892 -64.268 0
12.3234 -61.0746 0
15.2807 -61.2622 0
14.8448 -57.8357 0
12.3234 -61.0746 0
11.6827 -57.6556 0
12.9892 -64.268 0
12.3234 -61.0746 0
9.99633 -64.0039 0
9.10812 -60.8198 0
12.3234 -61.0746 0
11.6827 -57.6556 0
9.10812 -60.8198 0
8.25181 -57.4106 0
20.7032 -58.0024 0
20.7006 -54.3525 0
17.8177 -57.9529 0
17.6065 -54.3042 0
20.7006 -54.3525 0
20.6994 -50.4969 0
17.6065 -54.3042 0
17.4053 -50.4478 0
17.8177 -57.9529 0
17.6065 -54.3042 0
14.8448 -57.8357 0
14.4279 -54.1911 0
17.6065 -54.3042 0
17.4053 -50.4478 0
14.4279 -54.1911 0
14.0288 -50.3368 0
20.6994 -50.4969 0
20.6968 -46.4448 0
17.4053 -50.4478 0
17.2113 -46.3927 0
20.6968 -46.4448 0
20.6897 -42.2051 0
17.2113 -46.3927 0
17.0214 -42.1486 0
17.4053 -50.4478 0
17.2113 -46.3927 0
14.0288 -50.3368 0
13.6458 -46.2825 0
17.2113 -46.3927 0
17.0214 -42.1486 0
13.6458 -46.2825 0
13.2772 -42.0388 0
14.8448 -57.8357 0
14.4279 -54.1911 0
11.6827 -57.6556 0
11.0676 -54.0178 0
14.4279 -54.1911 0
14.0288 -50.3368 0
11.0676 -54.0178 0
10.4786 -50.1698 0
11.6827 -57.6556 0
11.0676 -54.0178 0
8.25181 -57.4106 0
7.42992 -53.7831 0
11.0676 -54.0178 0
10.4786 -50.1698 0
7.42992 -53.7831 0
6.64537 -49.9457 0
14.0288 -50.3368 0
13.6458 -46.2825 0
10.4786 -50.1698 0
9.91615 -46.1213 0
13.6458 -46.2825 0
13.2772 -42.0388 0
9.91615 -46.1213 0
9.38125 -41.8843 0
10.4786 -50.1698 0
9.91615 -46.1213 0
6.64537 -49.9457 0
5.90201 -45.9087 0
9.91615 -46.1213 0
9.38125 -41.8843 0
5.90201 -45.9087 0
5.20509 -41.6845 0
20.5798 -80.9017 0
21.7867 -80.7101 0
20.5798 -81.2495 0
21.4293 -81.056 0
21.7867 -80.7101 0
22.9812 -80.1405 0
21.4293 -81.056 0
22.2731 -80.4811 0
20.5798 -81.2495 0
21.4293 -81.056 0
20.5798 -81.5276 0
21.1474 -81.3295 0
21.4293 -81.056 0
22.2731 -80.4811 0
21.1474 -81.3295 0
21.7061 -80.7427 0
22.9812 -80.1405 0
24.1529 -79.207 0
22.2731 -80.4811 0
23.1063 -79.5397 0
24.1529 -79.207 0
25.2946 -77.9286 0
23.1063 -79.5397 0
23.9242 -78.252 0
22.2731 -80.4811 0
23.1063 -79.5397 0
21.7061 -80.7427 0
22.2506 -79.7863 0
23.1063 -79.5397 0
23.9242 -78.252 0
22.2506 -79.7863 0
22.779 -78.4844 0
20.5798 -81.5276 0
21.1474 -81.3295 0
20.5798 -81.842 0
20.9401 -81.6278 0
21.1474 -81.3295 0
21.7061 -80.7427 0
20.9401 -81.6278 0
21.2745 -81.0011 0
20.5798 -81.842 0
20.9401 -81.6278 0
20.5798 -82.1862 0
20.7432 -81.9459 0
20.9401 -81.6278 0
21.2745 -81.0011 0
20.7432 -81.9459 0
20.8643 -81.2554 0
21.7061 -80.7427 0
22.2506 -79.7863 0
21.2745 -81.0011 0
21.5715 -79.998 0
22.2506 -79.7863 0
22.779 -78.4844 0
21.5715 -79.998 0
21.8337 -78.6558 0
21.2745 -81.0011 0
21.5715 -79.998 0
20.8643 -81.2554 0
20.9255 -80.1781 0
21.5715 -79.998 0
21.8337 -78.6558 0
20.9255 -80.1781 0
20.9336 -78.7715 0
25.2946 -77.9286 0
26.402 -76.3261 0
23.9242 -78.252 0
24.7239 -76.6396 0
26.402 -76.3261 0
27.4732 -74.4193 0
24.7239 -76.6396 0
25.5032 -74.7227 0
23.9242 -78.252 0
24.7239 -76.6396 0
22.779 -78.4844 0
23.2921 -76.86 0
24.7239 -76.6396 0
25.5032 -74.7227 0
23.2921 -76.86 0
23.7917 -74.9335 0
27.4732 -74.4193 0
28.5074 -72.2261 0
25.5032 -74.7227 0
26.2609 -72.5194 0
28.5074 -72.2261 0
29.5049 -69.7624 0
26.2609 -72.5194 0
26.9964 -70.0458 0
25.5032 -74.7227 0
26.2609 -72.5194 0
23.7917 -74.9335 0
24.2794 -72.7223 0
26.2609 -72.5194 0
26.9964 -70.0458 0
24.2794 -72.7223 0
24.7562 -70.242 0
22.779 -78.4844 0
23.2921 -76.86 0
21.8337 -78.6558 0
22.0713 -77.0026 0
23.2921 -76.86 0
23.7917 -74.9335 0
22.0713 -77.0026 0
22.2945 -75.0575 0
21.8337 -78.6558 0
22.0713 -77.0026 0
20.9336 -78.7715 0
20.9056 -77.0711 0
22.0713 -77.0026 0
22.2945 -75.0575 0
20.9056 -77.0711 0
20.8614 -75.0975 0
23.7917 -74.9335 0
24.2794 -72.7223 0
22.2945 -75.0575 0
22.5116 -72.8355 0
24.2794 -72.7223 0
24.7562 -70.242 0
22.5116 -72.8355 0
22.7272 -70.3494 0
22.2945 -75.0575 0
22.5116 -72.8355 0
20.8614 -75.0975 0
20.8156 -72.8613 0
22.5116 -72.8355 0
22.7272 -70.3494 0
20.8156 -72.8613 0
20.7757 -70.3697 0
20.5798 -82.1862 0
20.7432 -81.9459 0
20.5798 -82.5393 0
20.5335 -82.2557 0
20.7432 -81.9459 0
20.8643 -81.2554 0
20.5335 -82.2557 0
20.4239 -81.4702 0
20.5798 -82.5393 0
20.5335 -82.2557 0
20.5798 -82.877 0
20.2774 -82.521 0
20.5335 -82.2557 0
20.4239 -81.4702 0
20.2774 -82.521 0
19.9017 -81.5938 0
20.8643 -81.2554 0
20.9255 -80.1781 0
20.4239 -81.4702 0
20.2351 -80.2948 0
20.9255 -80.1781 0
20.9336 -78.7715 0
20.2351 -80.2948 0
19.9787 -78.8077 0
20.4239 -81.4702 0
20.2351 -80.2948 0
19.9017 -81.5938 0
19.416 -80.2889 0
20.2351 -80.2948 0
19.9787 -78.8077 0
19.416 -80.2889 0
18.8708 -78.7301 0
20.5798 -82.877 0
20.2774 -82.521 0
20.5798 -83.1668 0
19.9501 -82.6545 0
20.2774 -82.521 0
19.9017 -81.5938 0
19.9501 -82.6545 0
19.1641 -81.4975 0
20.5798 -83.1668 0
19.9501 -82.6545 0
20.5798 -83.1956 0
19.2179 -82.5121 0
19.9501 -82.6545 0
19.1641 -81.4975 0
19.2179 -82.5121 0
18.0132 -81.1759 0
19.9017 -81.5938 0
19.416 -80.2889 0
19.1641 -81.4975 0
18.3121 -80.1041 0
19.416 -80.2889 0
18.8708 -78.7301 0
18.3121 -80.1041 0
17.4824 -78.522 0
19.1641 -81.4975 0
18.3121 -80.1041 0
18.0132 -81.1759 0
16.9198 -79.7934 0
18.3121 -80.1041 0
17.4824 -78.522 0
16.9198 -79.7934 0
15.8642 -78.2136 0
20.9336 -78.7715 0
20.9056 -77.0711 0
19.9787 -78.8077 0
19.686 -77.0551 0
20.9056 -77.0711 0
20.8614 -75.0975 0
19.686 -77.0551 0
19.3838 -75.0524 0
19.9787 -78.8077 0
19.686 -77.0551 0
18.8708 -78.7301 0
18.315 -76.9412 0
19.686 -77.0551 0
19.3838 -75.0524 0
18.315 -76.9412 0
17.7652 -74.92 0
20.8614 -75.0975 0
20.8156 -72.8613 0
19.3838 -75.0524 0
19.0864 -72.8026 0
20.8156 -72.8613 0
20.7757 -70.3697 0
19.0864 -72.8026 0
18.8013 -70.3072 0
19.3838 -75.0524 0
19.0864 -72.8026 0
17.7652 -74.92 0
17.2293 -72.6628 0
19.0864 -72.8026 0
18.8013 -70.3072 0
17.2293 -72.6628 0
16.7113 -70.1673 0
18.8708 -78.7301 0
18.315 -76.9412 0
17.4824 -78.522 0
16.6763 -76.7247 0
18.315 -76.9412 0
17.7652 -74.92 0
16.6763 -76.7247 0
15.8929 -74.7023 0
17.4824 -78.522 0
16.6763 -76.7247 0
15.8642 -78.2136 0
14.8316 -76.4225 0
16.6763 -76.7247 0
15.8929 -74.7023 0
14.8316 -76.4225 0
13.8195 -74.4064 0
17.7652 -74.92 0
17.2293 -72.6628 0
15.8929 -74.7023 0
15.132 -72.4477 0
17.2293 -72.6628 0
16.7113 -70.1673 0
15.132 -72.4477 0
14.394 -69.9573 0
15.8929 -74.7023 0
15.132 -72.4477 0
13.8195 -74.4064 0
12.828 -72.1588 0
15.132 -72.4477 0
14.394 -69.9573 0
12.828 -72.1588 0
11.8588 -69.6761 0
11.6548 -69.7624 0
12.6523 -72.2261 0
14.1633 -70.0458 0
14.8987 -72.5194 0
12.6523 -72.2261 0
13.6865 -74.4193 0
14.8987 -72.5194 0
15.6565 -74.7227 0
14.1633 -70.0458 0
14.8987 -72.5194 0
16.4034 -70.242 0
16.8803 -72.7223 0
14.8987 -72.5194 0
15.6565 -74.7227 0
16.8803 -72.7223 0
17.368 -74.9335 0
13.6865 -74.4193 0
14.7576 -76.3261 0
15.6565 -74.7227 0
16.4358 -76.6396 0
14.7576 -76.3261 0
15.865 -77.9286 0
16.4358 -76.6396 0
17.2354 -78.252 0
15.6565 -74.7227 0
16.4358 -76.6396 0
17.368 -74.9335 0
17.8676 -76.86 0
16.4358 -76.6396 0
17.2354 -78.252 0
17.8676 -76.86 0
18.3807 -78.4844 0
16.4034 -70.242 0
16.8803 -72.7223 0
18.4324 -70.3494 0
18.6481 -72.8355 0
16.8803 -72.7223 0
17.368 -74.9335 0
18.6481 -72.8355 0
18.8651 -75.0575 0
18.4324 -70.3494 0
18.6481 -72.8355 0
20.384 -70.3697 0
20.3441 -72.8613 0
18.6481 -72.8355 0
18.8651 -75.0575 0
20.3441 -72.8613 0
20.2983 -75.0975 0
17.368 -74.9335 0
17.8676 -76.86 0
18.8651 -75.0575 0
19.0884 -77.0026 0
17.8676 -76.86 0
18.3807 -78.4844 0
19.0884 -77.0026 0
19.326 -78.6558 0
18.8651 -75.0575 0
19.0884 -77.0026 0
20.2983 -75.0975 0
20.2541 -77.0711 0
19.0884 -77.0026 0
19.326 -78.6558 0
20.2541 -77.0711 0
20.226 -78.7715 0
15.865 -77.9286 0
17.0067 -79.207 0
17.2354 -78.252 0
18.0534 -79.5397 0
17.0067 -79.207 0
18.1785 -80.1405 0
18.0534 -79.5397 0
18.8865 -80.4811 0
17.2354 -78.252 0
18.0534 -79.5397 0
18.3807 -78.4844 0
18.9091 -79.7863 0
18.0534 -79.5397 0
18.8865 -80.4811 0
18.9091 -79.7863 0
19.4535 -80.7427 0
18.1785 -80.1405 0
19.373 -80.7101 0
18.8865 -80.4811 0
19.7304 -81.056 0
19.373 -80.7101 0
20.5798 -80.9017 0
19.7304 -81.056 0
20.5798 -81.2495 0
18.8865 -80.4811 0
19.7304 -81.056 0
19.4535 -80.7427 0
20.0123 -81.3295 0
19.7304 -81.056 0
20.5798 -81.2495 0
20.0123 -81.3295 0
20.5798 -81.5276 0
18.3807 -78.4844 0
18.9091 -79.7863 0
19.326 -78.6558 0
19.5882 -79.998 0
18.9091 -79.7863 0
19.4535 -80.7427 0
19.5882 -79.998 0
19.8851 -81.0011 0
19.326 -78.6558 0
19.5882 -79.998 0
20.226 -78.7715 0
20.2342 -80.1781 0
19.5882 -79.998 0
19.8851 -81.0011 0
20.2342 -80.1781 0
20.2954 -81.2554 0
19.4535 -80.7427 0
20.0123 -81.3295 0
19.8851 -81.0011 0
20.2196 -81.6278 0
20.0123 -81.3295 0
20.5798 -81.5276 0
20.2196 -81.6278 0
20.5798 -81.842 0
19.8851 -81.0011 0
20.2196 -81.6278 0
20.2954 -81.2554 0
20.4164 -81.9459 0
20.2196 -81.6278 0
20.5798 -81.842 0
20.4164 -81.9459 0
20.5798 -82.1862 0
20.384 -70.3697 0
20.3441 -72.8613 0
22.3584 -70.3072 0
22.0733 -72.8026 0
20.3441 -72.8613 0
20.2983 -75.0975 0
22.0733 -72.8026 0
21.7759 -75.0524 0
22.3584 -70.3072 0
22.0733 -72.8026 0
24.4484 -70.1673 0
23.9304 -72.6628 0
22.0733 -72.8026 0
21.7759 -75.0524 0
23.9304 -72.6628 0
23.3944 -74.92 0
20.2983 -75.0975 0
20.2541 -77.0711 0
21.7759 -75.0524 0
21.4737 -77.0551 0
20.2541 -77.0711 0
20.226 -78.7715 0
21.4737 -77.0551 0
21.1809 -78.8077 0
21.7759 -75.0524 0
21.4737 -77.0551 0
23.3944 -74.92 0
22.8447 -76.9412 0
21.4737 -77.0551 0
21.1809 -78.8077 0
22.8447 -76.9412 0
22.2889 -78.7301 0
24.4484 -70.1673 0
23.9304 -72.6628 0
26.7657 -69.9573 0
26.0277 -72.4477 0
23.9304 -72.6628 0
23.3944 -74.92 0
26.0277 -72.4477 0
25.2668 -74.7023 0
26.7657 -69.9573 0
26.0277 -72.4477 0
29.3009 -69.6761 0
28.3316 -72.1588 0
26.0277 -72.4477 0
25.2668 -74.7023 0
28.3316 -72.1588 0
27.3401 -74.4064 0
23.3944 -74.92 0
22.8447 -76.9412 0
25.2668 -74.7023 0
24.4833 -76.7247 0
22.8447 -76.9412 0
22.2889 -78.7301 0
24.4833 -76.7247 0
23.6772 -78.522 0
25.2668 -74.7023 0
24.4833 -76.7247 0
27.3401 -74.4064 0
26.328 -76.4225 0
24.4833 -76.7247 0
23.6772 -78.522 0
26.328 -76.4225 0
25.2955 -78.2136 0
20.226 -78.7715 0
20.2342 -80.1781 0
21.1809 -78.8077 0
20.9246 -80.2948 0
20.2342 -80.1781 0
20.2954 -81.2554 0
20.9246 -80.2948 0
20.7357 -81.4702 0
21.1809 -78.8077 0
20.9246 -80.2948 0
22.2889 -78.7301 0
21.7437 -80.2889 0
20.9246 -80.2948 0
20.7357 -81.4702 0
21.7437 -80.2889 0
21.2579 -81.5938 0
20.2954 -81.2554 0
20.4164 -81.9459 0
20.7357 -81.4702 0
20.6262 -82.2557 0
20.4164 -81.9459 0
20.5798 -82.1862 0
20.6262 -82.2557 0
20.5798 -82.5393 0
20.7357 -81.4702 0
20.6262 -82.2557 0
21.2579 -81.5938 0
20.8822 -82.521 0
20.6262 -82.2557 0
20.5798 -82.5393 0
20.8822 -82.521 0
20.5798 -82.877 0
22.2889 -78.7301 0
21.7437 -80.2889 0
23.6772 -78.522 0
22.8476 -80.1041 0
21.7437 -80.2889 0
21.2579 -81.5938 0
22.8476 -80.1041 0
21.9955 -81.4975 0
23.6772 -78.522 0
22.8476 -80.1041 0
25.2955 -78.2136 0
24.2399 -79.7934 0
22.8476 -80.1041 0
21.9955 -81.4975 0
24.2399 -79.7934 0
23.1465 -81.1759 0
21.2579 -81.5938 0
20.8822 -82.521 0
21.9955 -81.4975 0
21.2095 -82.6545 0
20.8822 -82.521 0
20.5798 -82.877 0
21.2095 -82.6545 0
20.5798 -83.1668 0
21.9955 -81.4975 0
21.2095 -82.6545 0
23.1465 -81.1759 0
21.9417 -82.5121 0
21.2095 -82.6545 0
20.5798 -83.1668 0
21.9417 -82.5121 0
20.5798 -83.1956 0
4.96454 -41.7926 0
5.67572 -45.9947 0
9.155 -41.9937 0
9.68931 -46.2068 0
5.67572 -45.9947 0
6.4227 -50.0143 0
9.68931 -46.2068 0
10.2514 -50.2372 0
9.155 -41.9937 0
9.68931 -46.2068 0
13.0626 -42.1307 0
13.4207 -46.3539 0
9.68931 -46.2068 0
10.2514 -50.2372 0
13.4207 -46.3539 0
13.7991 -50.3932 0
6.4227 -50.0143 0
7.20561 -53.8422 0
10.2514 -50.2372 0
10.8405 -54.0755 0
7.20561 -53.8422 0
8.02428 -57.4688 0
10.8405 -54.0755 0
11.4557 -57.7125 0
10.2514 -50.2372 0
10.8405 -54.0755 0
13.7991 -50.3932 0
14.1961 -54.2396 0
10.8405 -54.0755 0
11.4557 -57.7125 0
14.1961 -54.2396 0
14.61 -57.8838 0
13.0626 -42.1307 0
13.4207 -46.3539 0
16.8034 -42.2007 0
16.9798 -46.4331 0
13.4207 -46.3539 0
13.7991 -50.3932 0
16.9798 -46.4331 0
17.1688 -50.4797 0