# vtk DataFile Version 3.0
#This file was generated by the deal.II library on 2020/9/2 at 8:38:18
ASCII
DATASET UNSTRUCTURED_GRID

POINTS 1536 double
5 0 0
5.125 0 0
5 0.125 0
5.125 0.125 0
5.125 0 0
5.25 0 0
5.125 0.125 0
5.25 0.125 0
5 0.125 0
5.125 0.125 0
5 0.25 0
5.125 0.25 0
5.125 0.125 0
5.25 0.125 0
5.125 0.25 0
5.25 0.25 0
5.25 0 0
5.375 0 0
5.25 0.125 0
5.375 0.125 0
5.375 0 0
5.5 0 0
5.375 0.125 0
5.5 0.125 0
5.25 0.125 0
5.375 0.125 0
5.25 0.25 0
5.375 0.25 0
5.375 0.125 0
5.5 0.125 0
5.375 0.25 0
5.5 0.25 0
5 0.25 0
5.125 0.25 0
5 0.375 0
5.125 0.375 0
5.125 0.25 0
5.25 0.25 0
5.125 0.375 0
5.25 0.375 0
5 0.375 0
5.125 0.375 0
5 0.5 0
5.125 0.5 0
5.125 0.375 0
5.25 0.375 0
5.125 0.5 0
5.25 0.5 0
5.25 0.25 0
5.375 0.25 0
5.25 0.375 0
5.375 0.375 0
5.375 0.25 0
5.5 0.25 0
5.375 0.375 0
5.5 0.375 0
5.25 0.375 0
5.375 0.375 0
5.25 0.5 0
5.375 0.5 0
5.375 0.375 0
5.5 0.375 0
5.375 0.5 0
5.5 0.5 0
5.5 0 0
5.625 0 0
5.5 0.125 0
5.625 0.125 0
5.625 0 0
5.75 0 0
5.625 0.125 0
5.75 0.125 0
5.5 0.125 0
5.625 0.125 0
5.5 0.25 0
5.625 0.25 0
5.625 0.125 0
5.75 0.125 0
5.625 0.25 0
5.75 0.25 0
5.75 0 0
5.875 0 0
5.75 0.125 0
5.875 0.125 0
5.875 0 0
6 0 0
5.875 0.125 0
6 0.125 0
5.75 0.125 0
5.875 0.125 0
5.75 0.25 0
5.875 0.25 0
5.875 0.125 0
6 0.125 0
5.875 0.25 0
6 0.25 0
5.5 0.25 0
5.625 0.25 0
5.5 0.375 0
5.625 0.375 0
5.625 0.25 0
5.75 0.25 0
5.625 0.375 0
5.75 0.375 0
5.5 0.375 0
5.625 0.375 0
5.5 0.5 0
5.625 0.5 0
5.625 0.375 0
5.75 0.375 0
5.625 0.5 0
5.75 0.5 0
5.75 0.25 0
5.875 0.25 0
5.75 0.375 0
5.875 0.375 0
5.875 0.25 0
6 0.25 0
5.875 0.375 0
6 0.375 0
5.75 0.375 0
5.875 0.375 0
5.75 0.5 0
5.875 0.5 0
5.875 0.375 0
6 0.375 0
5.875 0.5 0
6 0.5 0
5 0.5 0
5.125 0.5 0
5 0.625 0
5.125 0.625 0
5.125 0.5 0
5.25 0.5 0
5.125 0.625 0
5.25 0.625 0
5 0.625 0
5.125 0.625 0
5 0.75 0
5.125 0.75 0
5.125 0.625 0
5.25 0.625 0
5.125 0.75 0
5.25 0.75 0
5.25 0.5 0
5.375 0.5 0
5.25 0.625 0
5.375 0.625 0
5.375 0.5 0
5.5 0.5 0
5.375 0.625 0
5.5 0.625 0
5.25 0.625 0
5.375 0.625 0
5.25 0.75 0
5.375 0.75 0
5.375 0.625 0
5.5 0.625 0
5.375 0.75 0
5.5 0.75 0
5 0.75 0
5.125 0.75 0
5 0.875 0
5.125 0.875 0
5.125 0.75 0
5.25 0.75 0
5.125 0.875 0
5.25 0.875 0
5 0.875 0
5.125 0.875 0
5 1 0
5.125 1 0
5.125 0.875 0
5.25 0.875 0
5.125 1 0
5.25 1 0
5.25 0.75 0
5.375 0.75 0
5.25 0.875 0
5.375 0.875 0
5.375 0.75 0
5.5 0.75 0
5.375 0.875 0
5.5 0.875 0
5.25 0.875 0
5.375 0.875 0
5.25 1 0
5.375 1 0
5.375 0.875 0
5.5 0.875 0
5.375 1 0
5.5 1 0
5.5 0.5 0
5.625 0.5 0
5.5 0.625 0
5.625 0.625 0
5.625 0.5 0
5.75 0.5 0
5.625 0.625 0
5.75 0.625 0
5.5 0.625 0
5.625 0.625 0
5.5 0.75 0
5.625 0.75 0
5.625 0.625 0
5.75 0.625 0
5.625 0.75 0
5.75 0.75 0
5.75 0.5 0
5.875 0.5 0
5.75 0.625 0
5.875 0.625 0
5.875 0.5 0
6 0.5 0
5.875 0.625 0
6 0.625 0
5.75 0.625 0
5.875 0.625 0
5.75 0.75 0
5.875 0.75 0
5.875 0.625 0
6 0.625 0
5.875 0.75 0
6 0.75 0
5.5 0.75 0
5.625 0.75 0
5.5 0.875 0
5.625 0.875 0
5.625 0.75 0
5.75 0.75 0
5.625 0.875 0
5.75 0.875 0
5.5 0.875 0
5.625 0.875 0
5.5 1 0
5.625 1 0
5.625 0.875 0
5.75 0.875 0
5.625 1 0
5.75 1 0
5.75 0.75 0
5.875 0.75 0
5.75 0.875 0
5.875 0.875 0
5.875 0.75 0
6 0.75 0
5.875 0.875 0
6 0.875 0
5.75 0.875 0
5.875 0.875 0
5.75 1 0
5.875 1 0
5.875 0.875 0
6 0.875 0
5.875 1 0
6 1 0
4 0 0
4.125 0 0
4 0.125 0
4.125 0.125 0
4.125 0 0
4.25 0 0
4.125 0.125 0
4.25 0.125 0
4 0.125 0
4.125 0.125 0
4 0.25 0
4.125 0.25 0
4.125 0.125 0
4.25 0.125 0
4.125 0.25 0
4.25 0.25 0
4.25 0 0
4.375 0 0
4.25 0.125 0
4.375 0.125 0
4.375 0 0
4.5 0 0
4.375 0.125 0
4.5 0.125 0
4.25 0.125 0
4.375 0.125 0
4.25 0.25 0
4.375 0.25 0
4.375 0.125 0
4.5 0.125 0
4.375 0.25 0
4.5 0.25 0
4 0.25 0
4.125 0.25 0
4 0.375 0
4.125 0.375 0
4.125 0.25 0
4.25 0.25 0
4.125 0.375 0
4.25 0.375 0
4 0.375 0
4.125 0.375 0
4 0.5 0
4.125 0.5 0
4.125 0.375 0
4.25 0.375 0
4.125 0.5 0
4.25 0.5 0
4.25 0.25 0
4.375 0.25 0
4.25 0.375 0
4.375 0.375 0
4.375 0.25 0
4.5 0.25 0
4.375 0.375 0
4.5 0.375 0
4.25 0.375 0
4.375 0.375 0
4.25 0.5 0
4.375 0.5 0
4.375 0.375 0
4.5 0.375 0
4.375 0.5 0
4.5 0.5 0
4.5 0 0
4.625 0 0
4.5 0.125 0
4.625 0.125 0
4.625 0 0
4.75 0 0
4.625 0.125 0
4.75 0.125 0
4.5 0.125 0
4.625 0.125 0
4.5 0.25 0
4.625 0.25 0
4.625 0.125 0
4.75 0.125 0
4.625 0.25 0
4.75 0.25 0
4.75 0 0
4.875 0 0
4.75 0.125 0
4.875 0.125 0
4.875 0 0
5 0 0
4.875 0.125 0
5 0.125 0
4.75 0.125 0
4.875 0.125 0
4.75 0.25 0
4.875 0.25 0
4.875 0.125 0
5 0.125 0
4.875 0.25 0
5 0.25 0
4.5 0.25 0
4.625 0.25 0
4.5 0.375 0
4.625 0.375 0
4.625 0.25 0
4.75 0.25 0
4.625 0.375 0
4.75 0.375 0
4.5 0.375 0
4.625 0.375 0
4.5 0.5 0
4.625 0.5 0
4.625 0.375 0
4.75 0.375 0
4.625 0.5 0
4.75 0.5 0
4.75 0.25 0
4.875 0.25 0
4.75 0.375 0
4.875 0.375 0
4.875 0.25 0
5 0.25 0
4.875 0.375 0
5 0.375 0
4.75 0.375 0
4.875 0.375 0
4.75 0.5 0
4.875 0.5 0
4.875 0.375 0
5 0.375 0
4.875 0.5 0
5 0.5 0
4 0.5 0
4.125 0.5 0
4 0.625 0
4.125 0.625 0
4.125 0.5 0
4.25 0.5 0
4.125 0.625 0
4.25 0.625 0
4 0.625 0
4.125 0.625 0
4 0.75 0
4.125 0.75 0
4.125 0.625 0
4.25 0.625 0
4.125 0.75 0
4.25 0.75 0
4.25 0.5 0
4.375 0.5 0
4.25 0.625 0
4.375 0.625 0
4.375 0.5 0
4.5 0.5 0
4.375 0.625 0
4.5 0.625 0
4.25 0.625 0
4.375 0.625 0
4.25 0.75 0
4.375 0.75 0
4.375 0.625 0
4.5 0.625 0
4.375 0.75 0
4.5 0.75 0
4 0.75 0
4.125 0.75 0
4 0.875 0
4.125 0.875 0
4.125 0.75 0
4.25 0.75 0
4.125 0.875 0
4.25 0.875 0
4 0.875 0
4.125 0.875 0
4 1 0
4.125 1 0
4.125 0.875 0
4.25 0.875 0
4.125 1 0
4.25 1 0
4.25 0.75 0
4.375 0.75 0
4.25 0.875 0
4.375 0.875 0
4.375 0.75 0
4.5 0.75 0
4.375 0.875 0
4.5 0.875 0
4.25 0.875 0
4.375 0.875 0
4.25 1 0
4.375 1 0
4.375 0.875 0
4.5 0.875 0
4.375 1 0
4.5 1 0
4.5 0.5 0
4.625 0.5 0
4.5 0.625 0
4.625 0.625 0
4.625 0.5 0
4.75 0.5 0
4.625 0.625 0
4.75 0.625 0
4.5 0.625 0
4.625 0.625 0
4.5 0.75 0
4.625 0.75 0
4.625 0.625 0
4.75 0.625 0
4.625 0.75 0
4.75 0.75 0
4.75 0.5 0
4.875 0.5 0
4.75 0.625 0
4.875 0.625 0
4.875 0.5 0
5 0.5 0
4.875 0.625 0
5 0.625 0
4.75 0.625 0
4.875 0.625 0
4.75 0.75 0
4.875 0.75 0
4.875 0.625 0
5 0.625 0
4.875 0.75 0
5 0.75 0
4.5 0.75 0
4.625 0.75 0
4.5 0.875 0
4.625 0.875 0
4.625 0.75 0
4.75 0.75 0
4.625 0.875 0
4.75 0.875 0
4.5 0.875 0
4.625 0.875 0
4.5 1 0
4.625 1 0
4.625 0.875 0
4.75 0.875 0
4.625 1 0
4.75 1 0
4.75 0.75 0
4.875 0.75 0
4.75 0.875 0
4.875 0.875 0
4.875 0.75 0
5 0.75 0
4.875 0.875 0
5 0.875 0
4.75 0.875 0
4.875 0.875 0
4.75 1 0
4.875 1 0
4.875 0.875 0
5 0.875 0
4.875 1 0
5 1 0
3 0 0
3.125 0 0
3 0.125 0
3.125 0.125 0
3.125 0 0
3.25 0 0
3.125 0.125 0
3.25 0.125 0
3 0.125 0
3.125 0.125 0
3 0.25 0
3.125 0.25 0
3.125 0.125 0
3.25 0.125 0
3.125 0.25 0
3.25 0.25 0
3.25 0 0
3.375 0 0
3.25 0.125 0
3.375 0.125 0
3.375 0 0
3.5 0 0
3.375 0.125 0
3.5 0.125 0
3.25 0.125 0
3.375 0.125 0
3.25 0.25 0
3.375 0.25 0
3.375 0.125 0
3.5 0.125 0
3.375 0.25 0
3.5 0.25 0
3 0.25 0
3.125 0.25 0
3 0.375 0
3.125 0.375 0
3.125 0.25 0
3.25 0.25 0
3.125 0.375 0
3.25 0.375 0
3 0.375 0
3.125 0.375 0
3 0.5 0
3.125 0.5 0
3.125 0.375 0
3.25 0.375 0
3.125 0.5 0
3.25 0.5 0
3.25 0.25 0
3.375 0.25 0
3.25 0.375 0
3.375 0.375 0
3.375 0.25 0
3.5 0.25 0
3.375 0.375 0
3.5 0.375 0
3.25 0.375 0
3.375 0.375 0
3.25 0.5 0
3.375 0.5 0
3.375 0.375 0
3.5 0.375 0
3.375 0.5 0
3.5 0.5 0
3.5 0 0
3.625 0 0
3.5 0.125 0
3.625 0.125 0
3.625 0 0
3.75 0 0
3.625 0.125 0
3.75 0.125 0
3.5 0.125 0
3.625 0.125 0
3.5 0.25 0
3.625 0.25 0
3.625 0.125 0
3.75 0.125 0
3.625 0.25 0
3.75 0.25 0
3.75 0 0
3.875 0 0
3.75 0.125 0
3.875 0.125 0
3.875 0 0
4 0 0
3.875 0.125 0
4 0.125 0
3.75 0.125 0
3.875 0.125 0
3.75 0.25 0
3.875 0.25 0
3.875 0.125 0
4 0.125 0
3.875 0.25 0
4 0.25 0
3.5 0.25 0
3.625 0.25 0
3.5 0.375 0
3.625 0.375 0
3.625 0.25 0
3.75 0.25 0
3.625 0.375 0
3.75 0.375 0
3.5 0.375 0
3.625 0.375 0
3.5 0.5 0
3.625 0.5 0
3.625 0.375 0
3.75 0.375 0
3.625 0.5 0
3.75 0.5 0
3.75 0.25 0
3.875 0.25 0
3.75 0.375 0
3.875 0.375 0
3.875 0.25 0
4 0.25 0
3.875 0.375 0
4 0.375 0
3.75 0.375 0
3.875 0.375 0
3.75 0.5 0
3.875 0.5 0
3.875 0.375 0
4 0.375 0
3.875 0.5 0
4 0.5 0
3 0.5 0
3.125 0.5 0
3 0.625 0
3.125 0.625 0
3.125 0.5 0
3.25 0.5 0
3.125 0.625 0
3.25 0.625 0
3 0.625 0
3.125 0.625 0
3 0.75 0
3.125 0.75 0
3.125 0.625 0
3.25 0.625 0
3.125 0.75 0
3.25 0.75 0
3.25 0.5 0
3.375 0.5 0
3.25 0.625 0
3.375 0.625 0
3.375 0.5 0
3.5 0.5 0
3.375 0.625 0
3.5 0.625 0
3.25 0.625 0
3.375 0.625 0
3.25 0.75 0
3.375 0.75 0
3.375 0.625 0
3.5 0.625 0
3.375 0.75 0
3.5 0.75 0
3 0.75 0
3.125 0.75 0
3 0.875 0
3.125 0.875 0
3.125 0.75 0
3.25 0.75 0
3.125 0.875 0
3.25 0.875 0
3 0.875 0
3.125 0.875 0
3 1 0
3.125 1 0
3.125 0.875 0
3.25 0.875 0
3.125 1 0
3.25 1 0
3.25 0.75 0
3.375 0.75 0
3.25 0.875 0
3.375 0.875 0
3.375 0.75 0
3.5 0.75 0
3.375 0.875 0
3.5 0.875 0
3.25 0.875 0
3.375 0.875 0
3.25 1 0
3.375 1 0
3.375 0.875 0
3.5 0.875 0
3.375 1 0
3.5 1 0
3.5 0.5 0
3.625 0.5 0
3.5 0.625 0
3.625 0.625 0
3.625 0.5 0
3.75 0.5 0
3.625 0.625 0
3.75 0.625 0
3.5 0.625 0
3.625 0.625 0
3.5 0.75 0
3.625 0.75 0
3.625 0.625 0
3.75 0.625 0
3.625 0.75 0
3.75 0.75 0
3.75 0.5 0
3.875 0.5 0
3.75 0.625 0
3.875 0.625 0
3.875 0.5 0
4 0.5 0
3.875 0.625 0
4 0.625 0
3.75 0.625 0
3.875 0.625 0
3.75 0.75 0
3.875 0.75 0
3.875 0.625 0
4 0.625 0
3.875 0.75 0
4 0.75 0
3.5 0.75 0
3.625 0.75 0
3.5 0.875 0
3.625 0.875 0
3.625 0.75 0
3.75 0.75 0
3.625 0.875 0
3.75 0.875 0
3.5 0.875 0
3.625 0.875 0
3.5 1 0
3.625 1 0
3.625 0.875 0
3.75 0.875 0
3.625 1 0
3.75 1 0
3.75 0.75 0
3.875 0.75 0
3.75 0.875 0
3.875 0.875 0
3.875 0.75 0
4 0.75 0
3.875 0.875 0
4 0.875 0
3.75 0.875 0
3.875 0.875 0
3.75 1 0
3.875 1 0
3.875 0.875 0
4 0.875 0
3.875 1 0
4 1 0
2 0 0
2.125 0 0
2 0.125 0
2.125 0.125 0
2.125 0 0
2.25 0 0
2.125 0.125 0
2.25 0.125 0
2 0.125 0
2.125 0.125 0
2 0.25 0
2.125 0.25 0
2.125 0.125 0
2.25 0.125 0
2.125 0.25 0
2.25 0.25 0
2.25 0 0
2.375 0 0
2.25 0.125 0
2.375 0.125 0
2.375 0 0
2.5 0 0
2.375 0.125 0
2.5 0.125 0
2.25 0.125 0
2.375 0.125 0
2.25 0.25 0
2.375 0.25 0
2.375 0.125 0
2.5 0.125 0
2.375 0.25 0
2.5 0.25 0
2 0.25 0
2.125 0.25 0
2 0.375 0
2.125 0.375 0
2.125 0.25 0
2.25 0.25 0
2.125 0.375 0
2.25 0.375 0
2 0.375 0
2.125 0.375 0
2 0.5 0
2.125 0.5 0
2.125 0.375 0
2.25 0.375 0
2.125 0.5 0
2.25 0.5 0
2.25 0.25 0
2.375 0.25 0
2.25 0.375 0
2.375 0.375 0
2.375 0.25 0
[...]
POINT_DATA 1536
VECTORS displacements double
9.93647 -10.9389 0
10.0709 -9.7568 0
8.78863 -10.9802 0
8.88929 -9.79338 0
10.0709 -9.7568 0
10.1905 -8.54425 0
8.88929 -9.79338 0
8.9781 -8.5764 0
8.78863 -10.9802 0
8.88929 -9.79338 0
7.66966 -11.0089 0
7.73515 -9.81803 0
8.88929 -9.79338 0
8.9781 -8.5764 0
7.73515 -9.81803 0
7.79109 -8.59673 0
10.1905 -8.54425 0
10.2978 -7.30452 0
8.9781 -8.5764 0
9.05566 -7.3327 0
10.2978 -7.30452 0
10.3968 -6.0389 0
9.05566 -7.3327 0
9.12242 -6.06397 0
8.9781 -8.5764 0
9.05566 -7.3327 0
7.79109 -8.59673 0
7.83663 -7.34835 0
9.05566 -7.3327 0
9.12242 -6.06397 0
7.83663 -7.34835 0
7.86995 -6.07411 0
7.66966 -11.0089 0
7.73515 -9.81803 0
6.57084 -11.0247 0
6.60138 -9.83037 0
7.73515 -9.81803 0
7.79109 -8.59673 0
6.60138 -9.83037 0
6.62544 -8.60513 0
6.57084 -11.0247 0
6.60138 -9.83037 0
5.48324 -11.028 0
5.48009 -9.83133 0
6.60138 -9.83037 0
6.62544 -8.60513 0
5.48009 -9.83133 0
5.47468 -8.60337 0
7.79109 -8.59673 0
7.83663 -7.34835 0
6.62544 -8.60513 0
6.64182 -7.35227 0
7.83663 -7.34835 0
7.86995 -6.07411 0
6.64182 -7.35227 0
6.64912 -6.07375 0
6.62544 -8.60513 0
6.64182 -7.35227 0
5.47468 -8.60337 0
5.46628 -7.34794 0
6.64182 -7.35227 0
6.64912 -6.07375 0
5.46628 -7.34794 0
5.45477 -6.0686 0
10.3968 -6.0389 0
10.495 -4.74498 0
9.12242 -6.06397 0
9.17741 -4.76667 0
10.495 -4.74498 0
10.6075 -3.40267 0
9.17741 -4.76667 0
9.21458 -3.4288 0
9.12242 -6.06397 0
9.17741 -4.76667 0
7.86995 -6.07411 0
7.88776 -4.77145 0
9.17741 -4.76667 0
9.21458 -3.4288 0
7.88776 -4.77145 0
7.88552 -3.42665 0
10.6075 -3.40267 0
10.7522 -1.98167 0
9.21458 -3.4288 0
9.20824 -1.97678 0
10.7522 -1.98167 0
10.9097 0 0
9.20824 -1.97678 0
9.2469 -0.429336 0
9.21458 -3.4288 0
9.20824 -1.97678 0
7.88552 -3.42665 0
7.88407 -2.03501 0
9.20824 -1.97678 0
9.2469 -0.429336 0
7.88407 -2.03501 0
7.92039 -0.677929 0
7.86995 -6.07411 0
7.88776 -4.77145 0
6.64912 -6.07375 0
6.64675 -4.76921 0
7.88776 -4.77145 0
7.88552 -3.42665 0
6.64675 -4.76921 0
6.64063 -3.44028 0
6.64912 -6.07375 0
6.64675 -4.76921 0
5.45477 -6.0686 0
5.44225 -4.76984 0
6.64675 -4.76921 0
6.64063 -3.44028 0
5.44225 -4.76984 0
5.43443 -3.46125 0
7.88552 -3.42665 0
7.88407 -2.03501 0
6.64063 -3.44028 0
6.64556 -2.10715 0
7.88407 -2.03501 0
7.92039 -0.677929 0
6.64556 -2.10715 0
6.67238 -0.826017 0
6.64063 -3.44028 0
6.64556 -2.10715 0
5.43443 -3.46125 0
5.43859 -2.16456 0
6.64556 -2.10715 0
6.67238 -0.826017 0
5.43859 -2.16456 0
5.45596 -0.916242 0
5.48324 -11.028 0
5.48009 -9.83133 0
4.39706 -11.0196 0
4.36168 -9.82224 0
5.48009 -9.83133 0
5.47468 -8.60337 0
4.36168 -9.82224 0
4.32918 -8.5935 0
4.39706 -11.0196 0
4.36168 -9.82224 0
3.30153 -11.0002 0
3.23492 -9.80421 0
4.36168 -9.82224 0
4.32918 -8.5935 0
3.23492 -9.80421 0
3.17682 -8.57691 0
5.47468 -8.60337 0
5.46628 -7.34794 0
4.32918 -8.5935 0
4.29937 -7.33804 0
5.46628 -7.34794 0
5.45477 -6.0686 0
4.29937 -7.33804 0
4.2729 -6.06138 0
4.32918 -8.5935 0
4.29937 -7.33804 0
3.17682 -8.57691 0
3.12743 -7.32374 0
4.29937 -7.33804 0
4.2729 -6.06138 0
3.12743 -7.32374 0
3.0874 -6.05158 0
3.30153 -11.0002 0
3.23492 -9.80421 0
2.18505 -10.9703 0
2.0873 -9.77772 0
3.23492 -9.80421 0
3.17682 -8.57691 0
2.0873 -9.77772 0
2.00391 -8.55408 0
2.18505 -10.9703 0
2.0873 -9.77772 0
1.03567 -10.9294 0
0.905664 -9.74233 0
2.0873 -9.77772 0
2.00391 -8.55408 0
0.905664 -9.74233 0
0.795722 -8.52454 0
3.17682 -8.57691 0
3.12743 -7.32374 0
2.00391 -8.55408 0
1.9355 -7.30517 0
3.12743 -7.32374 0
3.0874 -6.05158 0
1.9355 -7.30517 0
1.88266 -6.03844 0
2.00391 -8.55408 0
1.9355 -7.30517 0
0.795722 -8.52454 0
0.70735 -7.28197 0
1.9355 -7.30517 0
1.88266 -6.03844 0
0.70735 -7.28197 0
0.642023 -6.02208 0
5.45477 -6.0686 0
5.44225 -4.76984 0
4.2729 -6.06138 0
4.25195 -4.77114 0
5.44225 -4.76984 0
5.43443 -3.46125 0
4.25195 -4.77114 0
4.24013 -3.47915 0
4.2729 -6.06138 0
4.25195 -4.77114 0
3.0874 -6.05158 0
3.05796 -4.76956 0
4.25195 -4.77114 0
4.24013 -3.47915 0
3.05796 -4.76956 0
3.04054 -3.48956 0
5.43443 -3.46125 0
5.43859 -2.16456 0
4.24013 -3.47915 0
4.24011 -2.20324 0
5.43859 -2.16456 0
5.45596 -0.916242 0
4.24011 -2.20324 0
4.24904 -0.966868 0
4.24013 -3.47915 0
4.24011 -2.20324 0
3.04054 -3.48956 0
3.03528 -2.22513 0
4.24011 -2.20324 0
4.24904 -0.966868 0
3.03528 -2.22513 0
3.03758 -0.989298 0
3.0874 -6.05158 0
3.05796 -4.76956 0
1.88266 -6.03844 0
1.84561 -4.76349 0
3.05796 -4.76956 0
3.04054 -3.48956 0
1.84561 -4.76349 0
1.82359 -3.49175 0
1.88266 -6.03844 0
1.84561 -4.76349 0
0.642023 -6.02208 0
0.600265 -4.75421 0
1.84561 -4.76349 0
1.82359 -3.49175 0
0.600265 -4.75421 0
0.580059 -3.489 0
3.04054 -3.48956 0
3.03528 -2.22513 0
1.82359 -3.49175 0
1.81432 -2.23406 0
3.03528 -2.22513 0
3.03758 -0.989298 0
1.81432 -2.23406 0
1.81271 -0.994574 0
1.82359 -3.49175 0
1.81432 -2.23406 0
0.580059 -3.489 0
0.575068 -2.23561 0
1.81432 -2.23406 0
1.81271 -0.994574 0
0.575068 -2.23561 0
0.575155 -0.9945 0
8.25162 -18.7803 0
8.52325 -17.9985 0
7.52422 -18.862 0
7.72773 -18.075 0
8.52325 -17.9985 0
8.7772 -17.1512 0
7.72773 -18.075 0
7.91817 -17.2226 0
7.52422 -18.862 0
7.72773 -18.075 0
6.82898 -18.9199 0
6.96402 -18.1294 0
7.72773 -18.075 0
7.91817 -17.2226 0
6.96402 -18.1294 0
7.09065 -17.2735 0
8.7772 -17.1512 0
9.01365 -16.2428 0
7.91817 -17.2226 0
8.09558 -16.3092 0
9.01365 -16.2428 0
9.23269 -15.2777 0
8.09558 -16.3092 0
8.26 -15.3391 0
7.91817 -17.2226 0
8.09558 -16.3092 0
7.09065 -17.2735 0
7.20878 -16.3565 0
8.09558 -16.3092 0
8.26 -15.3391 0
7.20878 -16.3565 0
7.31835 -15.3828 0
6.82898 -18.9199 0
6.96402 -18.1294 0
6.15418 -18.9539 0
6.22087 -18.1615 0
6.96402 -18.1294 0
7.09065 -17.2735 0
6.22087 -18.1615 0
6.28371 -17.3037 0
6.15418 -18.9539 0
6.22087 -18.1615 0
5.48866 -18.9642 0
5.48742 -18.1715 0
6.22087 -18.1615 0
6.28371 -17.3037 0
5.48742 -18.1715 0
5.48672 -17.3133 0
7.09065 -17.2735 0
7.20878 -16.3565 0
6.28371 -17.3037 0
6.34254 -16.3847 0
7.20878 -16.3565 0
7.31835 -15.3828 0
6.34254 -16.3847 0
6.39721 -15.4089 0
6.28371 -17.3037 0
6.34254 -16.3847 0
5.48672 -17.3133 0
5.48636 -16.3938 0
6.34254 -16.3847 0
6.39721 -15.4089 0
5.48636 -16.3938 0
5.48619 -15.4173 0
9.23269 -15.2777 0
9.43437 -14.2604 0
8.26 -15.3391 0
8.41144 -14.3167 0
9.43437 -14.2604 0
9.61876 -13.1951 0
8.41144 -14.3167 0
8.54995 -13.2464 0
8.26 -15.3391 0
8.41144 -14.3167 0
7.31835 -15.3828 0
7.41931 -14.3568 0
8.41144 -14.3167 0
8.54995 -13.2464 0
7.41931 -14.3568 0
7.51157 -13.2828 0
9.61876 -13.1951 0
9.78601 -12.0865 0
8.54995 -13.2464 0
8.67562 -12.1327 0
9.78601 -12.0865 0
9.93647 -10.9389 0
8.67562 -12.1327 0
8.78863 -10.9802 0
8.54995 -13.2464 0
8.67562 -12.1327 0
7.51157 -13.2828 0
7.59506 -12.1653 0
8.67562 -12.1327 0
8.78863 -10.9802 0
7.59506 -12.1653 0
7.66966 -11.0089 0
7.31835 -15.3828 0
7.41931 -14.3568 0
6.39721 -15.4089 0
6.44758 -14.3806 0
7.41931 -14.3568 0
7.51157 -13.2828 0
6.44758 -14.3806 0
6.49348 -13.3042 0
6.39721 -15.4089 0
6.44758 -14.3806 0
5.48619 -15.4173 0
5.48604 -14.3882 0
6.44758 -14.3806 0
6.49348 -13.3042 0
5.48604 -14.3882 0
5.4857 -13.3107 0
7.51157 -13.2828 0
7.59506 -12.1653 0
6.49348 -13.3042 0
6.53469 -12.1841 0
7.59506 -12.1653 0
7.66966 -11.0089 0
6.53469 -12.1841 0
6.57084 -11.0247 0
6.49348 -13.3042 0
6.53469 -12.1841 0
5.4857 -13.3107 0
5.48491 -12.1892 0
6.53469 -12.1841 0
6.57084 -11.0247 0
5.48491 -12.1892 0
5.48324 -11.028 0
5.48866 -18.9642 0
5.48742 -18.1715 0
4.82187 -18.9512 0
4.75323 -18.1596 0
5.48742 -18.1715 0
5.48672 -17.3133 0
4.75323 -18.1596 0
4.68931 -17.3025 0
4.82187 -18.9512 0
4.75323 -18.1596 0
4.14385 -18.9153 0
4.00829 -18.1262 0
4.75323 -18.1596 0
4.68931 -17.3025 0
4.00829 -18.1262 0
3.88141 -17.2715 0
5.48672 -17.3133 0
5.48636 -16.3938 0
4.68931 -17.3025 0
4.62997 -16.3839 0
5.48636 -16.3938 0
5.48619 -15.4173 0
4.62997 -16.3839 0
4.57506 -15.4082 0
4.68931 -17.3025 0
4.62997 -16.3839 0
3.88141 -17.2715 0
3.76318 -16.3552 0
4.62997 -16.3839 0
4.57506 -15.4082 0
3.76318 -16.3552 0
3.6536 -15.3817 0
4.14385 -18.9153 0
4.00829 -18.1262 0
3.44519 -18.8568 0
3.24287 -18.0714 0
4.00829 -18.1262 0
3.88141 -17.2715 0
3.24287 -18.0714 0
3.05305 -17.2203 0
3.44519 -18.8568 0
3.24287 -18.0714 0
2.71673 -18.7757 0
2.44726 -17.9951 0
3.24287 -18.0714 0
3.05305 -17.2203 0
2.44726 -17.9951 0
2.19418 -17.1489 0
3.88141 -17.2715 0
3.76318 -16.3552 0
3.05305 -17.2203 0
2.87589 -16.3077 0
3.76318 -16.3552 0
3.6536 -15.3817 0
2.87589 -16.3077 0
2.71154 -15.3378 0
3.05305 -17.2203 0
2.87589 -16.3077 0
2.19418 -17.1489 0
1.95786 -16.2412 0
2.87589 -16.3077 0
2.71154 -15.3378 0
1.95786 -16.2412 0
1.73854 -15.2763 0
5.48619 -15.4173 0
5.48604 -14.3882 0
4.57506 -15.4082 0
4.52449 -14.3797 0
5.48604 -14.3882 0
5.4857 -13.3107 0
4.52449 -14.3797 0
4.47811 -13.3026 0
4.57506 -15.4082 0
4.52449 -14.3797 0
3.6536 -15.3817 0
3.55265 -14.3552 0
4.52449 -14.3797 0
4.47811 -13.3026 0
3.55265 -14.3552 0
3.46034 -13.28 0
5.4857 -13.3107 0
5.48491 -12.1892 0
4.47811 -13.3026 0
4.43574 -12.1811 0
5.48491 -12.1892 0
5.48324 -11.028 0
4.43574 -12.1811 0
4.39706 -11.0196 0
4.47811 -13.3026 0
4.43574 -12.1811 0
3.46034 -13.28 0
3.37665 -12.1603 0
4.43574 -12.1811 0
4.39706 -11.0196 0
3.37665 -12.1603 0
3.30153 -11.0002 0
3.6536 -15.3817 0
3.55265 -14.3552 0
2.71154 -15.3378 0
2.56011 -14.3149 0
3.55265 -14.3552 0
3.46034 -13.28 0
2.56011 -14.3149 0
2.42176 -13.2432 0
2.71154 -15.3378 0
2.56011 -14.3149 0
1.73854 -15.2763 0
1.5364 -14.2584 0
2.56011 -14.3149 0
2.42176 -13.2432 0
1.5364 -14.2584 0
1.35166 -13.1918 0
3.46034 -13.28 0
3.37665 -12.1603 0
2.42176 -13.2432 0
2.29666 -12.1269 0
3.37665 -12.1603 0
3.30153 -11.0002 0
2.29666 -12.1269 0
2.18505 -10.9703 0
2.42176 -13.2432 0
2.29666 -12.1269 0
1.35166 -13.1918 0
1.1846 -12.0807 0
2.29666 -12.1269 0
2.18505 -10.9703 0
1.1846 -12.0807 0
1.03567 -10.9294 0
5.45485 -22.0299 0
5.85126 -21.9733 0
5.45485 -22.1461 0
5.74565 -22.0885 0
5.85126 -21.9733 0
6.24132 -21.8052 0
5.74565 -22.0885 0
6.03216 -21.9175 0
5.45485 -22.1461 0
5.74565 -22.0885 0
5.45485 -22.2341 0
5.65054 -22.1752 0
5.74565 -22.0885 0
6.03216 -21.9175 0
5.65054 -22.1752 0
5.84247 -22.0008 0
6.24132 -21.8052 0
6.61967 -21.5301 0
6.03216 -21.9175 0
6.31074 -21.6381 0
6.61967 -21.5301 0
6.98247 -21.1543 0
6.31074 -21.6381 0
6.57878 -21.2573 0
6.03216 -21.9175 0
6.31074 -21.6381 0
5.84247 -22.0008 0
6.02781 -21.7168 0
6.31074 -21.6381 0
6.57878 -21.2573 0
6.02781 -21.7168 0
6.20505 -21.3311 0
5.45485 -22.2341 0
5.65054 -22.1752 0
5.45485 -22.3004 0
5.56174 -22.2394 0
5.65054 -22.1752 0
5.84247 -22.0008 0
5.56174 -22.2394 0
5.66431 -22.0595 0
5.45485 -22.3004 0
5.56174 -22.2394 0
5.45485 -22.3504 0
5.47642 -22.2854 0
5.56174 -22.2394 0
5.66431 -22.0595 0
5.47642 -22.2854 0
5.4918 -22.0959 0
5.84247 -22.0008 0
6.02781 -21.7168 0
5.66431 -22.0595 0
5.76006 -21.7688 0
6.02781 -21.7168 0
6.20505 -21.3311 0
5.76006 -21.7688 0
5.84878 -21.3771 0
5.66431 -22.0595 0
5.76006 -21.7688 0
5.4918 -22.0959 0
5.49878 -21.7949 0
5.76006 -21.7688 0
5.84878 -21.3771 0
5.49878 -21.7949 0
5.49929 -21.3955 0
6.98247 -21.1543 0
7.32758 -20.6849 0
6.57878 -21.2573 0
6.8347 -20.7825 0
7.32758 -20.6849 0
7.65412 -20.1288 0
6.8347 -20.7825 0
7.07772 -20.221 0
6.57878 -21.2573 0
6.8347 -20.7825 0
6.20505 -21.3311 0
6.37372 -20.8518 0
6.8347 -20.7825 0
7.07772 -20.221 0
6.37372 -20.8518 0
6.53385 -20.2862 0
7.65412 -20.1288 0
7.96203 -19.4921 0
7.07772 -20.221 0
7.30757 -19.579 0
7.96203 -19.4921 0
8.25162 -18.7803 0
7.30757 -19.579 0
7.52422 -18.862 0
7.07772 -20.221 0
7.30757 -19.579 0
6.53385 -20.2862 0
6.68558 -19.6404 0
7.30757 -19.579 0
7.52422 -18.862 0
6.68558 -19.6404 0
6.82898 -18.9199 0
6.20505 -21.3311 0
6.37372 -20.8518 0
5.84878 -21.3771 0
5.93158 -20.8933 0
6.37372 -20.8518 0
6.53385 -20.2862 0
5.93158 -20.8933 0
6.00965 -20.3245 0
5.84878 -21.3771 0
5.93158 -20.8933 0
5.49929 -21.3955 0
5.49667 -20.9072 0
5.93158 -20.8933 0
6.00965 -20.3245 0
5.49667 -20.9072 0
5.49339 -20.3362 0
6.53385 -20.2862 0
6.68558 -19.6404 0
6.00965 -20.3245 0
6.08376 -19.6764 0
6.68558 -19.6404 0
6.82898 -18.9199 0
6.08376 -19.6764 0
6.15418 -18.9539 0
6.00965 -20.3245 0
6.08376 -19.6764 0
5.49339 -20.3362 0
5.49062 -19.6871 0
6.08376 -19.6764 0
6.15418 -18.9539 0
5.49062 -19.6871 0
5.48866 -18.9642 0
5.45485 -22.3504 0
5.47642 -22.2854 0
5.45485 -22.3889 0
5.39217 -22.3162 0
5.47642 -22.2854 0
5.4918 -22.0959 0
5.39217 -22.3162 0
5.3192 -22.1098 0
5.45485 -22.3889 0
5.39217 -22.3162 0
5.45485 -22.4223 0
5.30558 -22.3337 0
5.39217 -22.3162 0
5.3192 -22.1098 0
5.30558 -22.3337 0
5.13814 -22.0965 0
5.4918 -22.0959 0
5.49878 -21.7949 0
5.3192 -22.1098 0
5.23499 -21.7933 0
5.49878 -21.7949 0
5.49929 -21.3955 0
5.23499 -21.7933 0
5.14573 -21.3848 0
5.3192 -22.1098 0
5.23499 -21.7933 0
5.13814 -22.0965 0
4.95625 -21.7589 0
5.23499 -21.7933 0
5.14573 -21.3848 0
4.95625 -21.7589 0
4.77555 -21.3432 0
5.45485 -22.4223 0
5.30558 -22.3337 0
5.45485 -22.4633 0
5.20841 -22.3351 0
5.30558 -22.3337 0
5.13814 -22.0965 0
5.20841 -22.3351 0
4.92687 -22.0415 0
5.45485 -22.4633 0
5.20841 -22.3351 0
5.45485 -22.5093 0
5.019 -22.3005 0
5.20841 -22.3351 0
4.92687 -22.0415 0
5.019 -22.3005 0
4.63265 -21.9324 0
5.13814 -22.0965 0
4.95625 -21.7589 0
4.92687 -22.0415 0
4.64229 -21.6867 0
4.95625 -21.7589 0
4.77555 -21.3432 0
4.64229 -21.6867 0
4.37665 -21.2716 0
4.92687 -22.0415 0
4.64229 -21.6867 0
4.63265 -21.9324 0
4.28189 -21.5853 0
4.64229 -21.6867 0
4.37665 -21.2716 0
4.28189 -21.5853 0
3.94386 -21.1729 0
5.49929 -21.3955 0
5.49667 -20.9072 0
5.14573 -21.3848 0
5.05773 -20.893 0
5.49667 -20.9072 0
5.49339 -20.3362 0
5.05773 -20.893 0
4.97404 -20.3214 0
5.14573 -21.3848 0
5.05773 -20.893 0
4.77555 -21.3432 0
4.60375 -20.8509 0
5.05773 -20.893 0
4.97404 -20.3214 0
4.60375 -20.8509 0
4.44137 -20.2808 0
5.49339 -20.3362 0
5.49062 -19.6871 0
4.97404 -20.3214 0
4.89541 -19.673 0
5.49062 -19.6871 0
5.48866 -18.9642 0
4.89541 -19.673 0
4.82187 -18.9512 0
4.97404 -20.3214 0
4.89541 -19.673 0
4.44137 -20.2808 0
4.28815 -19.6347 0
4.89541 -19.673 0
4.82187 -18.9512 0
4.28815 -19.6347 0
4.14385 -18.9153 0
4.77555 -21.3432 0
4.60375 -20.8509 0
4.37665 -21.2716 0
4.1253 -20.7818 0
4.60375 -20.8509 0
4.44137 -20.2808 0
4.1253 -20.7818 0
3.88651 -20.2152 0
4.37665 -21.2716 0
4.1253 -20.7818 0
3.94386 -21.1729 0
3.61685 -20.6873 0
4.1253 -20.7818 0
3.88651 -20.2152 0
3.61685 -20.6873 0
3.30246 -20.1249 0
4.44137 -20.2808 0
4.28815 -19.6347 0
3.88651 -20.2152 0
3.65979 -19.5726 0
4.28815 -19.6347 0
4.14385 -18.9153 0
3.65979 -19.5726 0
3.44519 -18.8568 0
3.88651 -20.2152 0
3.65979 -19.5726 0
3.30246 -20.1249 0
3.00206 -19.4869 0
3.65979 -19.5726 0
3.44519 -18.8568 0
3.00206 -19.4869 0
2.71673 -18.7757 0
2.65807 -18.7803 0
2.94766 -19.4921 0
3.38547 -18.862 0
3.60212 -19.579 0
2.94766 -19.4921 0
3.25558 -20.1288 0
3.60212 -19.579 0
3.83197 -20.221 0
3.38547 -18.862 0
3.60212 -19.579 0
4.08071 -18.9199 0
4.22411 -19.6404 0
3.60212 -19.579 0
3.83197 -20.221 0
4.22411 -19.6404 0
4.37584 -20.2862 0
3.25558 -20.1288 0
3.58212 -20.6849 0
3.83197 -20.221 0
4.07499 -20.7825 0
3.58212 -20.6849 0
3.92722 -21.1543 0
4.07499 -20.7825 0
4.33091 -21.2573 0
3.83197 -20.221 0
4.07499 -20.7825 0
4.37584 -20.2862 0
4.53598 -20.8518 0
4.07499 -20.7825 0
4.33091 -21.2573 0
4.53598 -20.8518 0
4.70465 -21.3311 0
4.08071 -18.9199 0
4.22411 -19.6404 0
4.75551 -18.9539 0
4.82593 -19.6764 0
4.22411 -19.6404 0
4.37584 -20.2862 0
4.82593 -19.6764 0
4.90004 -20.3245 0
4.75551 -18.9539 0
4.82593 -19.6764 0
5.42103 -18.9642 0
5.41907 -19.6871 0
4.82593 -19.6764 0
4.90004 -20.3245 0
5.41907 -19.6871 0
5.4163 -20.3362 0
4.37584 -20.2862 0
4.53598 -20.8518 0
4.90004 -20.3245 0
4.97812 -20.8933 0
4.53598 -20.8518 0
4.70465 -21.3311 0
4.97812 -20.8933 0
5.06091 -21.3771 0
4.90004 -20.3245 0
4.97812 -20.8933 0
5.4163 -20.3362 0
5.41303 -20.9072 0
4.97812 -20.8933 0
5.06091 -21.3771 0
5.41303 -20.9072 0
5.4104 -21.3955 0
3.92722 -21.1543 0
4.29003 -21.5301 0
4.33091 -21.2573 0
4.59895 -21.6381 0
4.29003 -21.5301 0
4.66837 -21.8052 0
4.59895 -21.6381 0
4.87753 -21.9175 0
4.33091 -21.2573 0
4.59895 -21.6381 0
4.70465 -21.3311 0
4.88189 -21.7168 0
4.59895 -21.6381 0
4.87753 -21.9175 0
4.88189 -21.7168 0
5.06723 -22.0008 0
4.66837 -21.8052 0
5.05843 -21.9733 0
4.87753 -21.9175 0
5.16405 -22.0885 0
5.05843 -21.9733 0
5.45485 -22.0299 0
5.16405 -22.0885 0
5.45485 -22.1461 0
4.87753 -21.9175 0
5.16405 -22.0885 0
5.06723 -22.0008 0
5.25915 -22.1752 0
5.16405 -22.0885 0
5.45485 -22.1461 0
5.25915 -22.1752 0
5.45485 -22.2341 0
4.70465 -21.3311 0
4.88189 -21.7168 0
5.06091 -21.3771 0
5.14964 -21.7688 0
4.88189 -21.7168 0
5.06723 -22.0008 0
5.14964 -21.7688 0
5.24539 -22.0595 0
5.06091 -21.3771 0
5.14964 -21.7688 0
5.4104 -21.3955 0
5.41091 -21.7949 0
5.14964 -21.7688 0
5.24539 -22.0595 0
5.41091 -21.7949 0
5.41789 -22.0959 0
5.06723 -22.0008 0
5.25915 -22.1752 0
5.24539 -22.0595 0
5.34795 -22.2394 0
5.25915 -22.1752 0
5.45485 -22.2341 0
5.34795 -22.2394 0
5.45485 -22.3004 0
5.24539 -22.0595 0
5.34795 -22.2394 0
5.41789 -22.0959 0
5.43327 -22.2854 0
5.34795 -22.2394 0
5.45485 -22.3004 0
5.43327 -22.2854 0
5.45485 -22.3504 0
5.42103 -18.9642 0
5.41907 -19.6871 0
6.08783 -18.9512 0
6.01428 -19.673 0
5.41907 -19.6871 0
5.4163 -20.3362 0
6.01428 -19.673 0
5.93565 -20.3214 0
6.08783 -18.9512 0
6.01428 -19.673 0
6.76585 -18.9153 0
6.62154 -19.6347 0
6.01428 -19.673 0
5.93565 -20.3214 0
6.62154 -19.6347 0
6.46832 -20.2808 0
5.4163 -20.3362 0
5.41303 -20.9072 0
5.93565 -20.3214 0
5.85197 -20.893 0
5.41303 -20.9072 0
5.4104 -21.3955 0
5.85197 -20.893 0
5.76397 -21.3848 0
5.93565 -20.3214 0
5.85197 -20.893 0
6.46832 -20.2808 0
6.30594 -20.8509 0
5.85197 -20.893 0
5.76397 -21.3848 0
6.30594 -20.8509 0
6.13414 -21.3432 0
6.76585 -18.9153 0
6.62154 -19.6347 0
7.46451 -18.8568 0
7.2499 -19.5726 0
6.62154 -19.6347 0
6.46832 -20.2808 0
7.2499 -19.5726 0
7.02318 -20.2152 0
7.46451 -18.8568 0
7.2499 -19.5726 0
8.19296 -18.7757 0
7.90763 -19.4869 0
7.2499 -19.5726 0
7.02318 -20.2152 0
7.90763 -19.4869 0
7.60723 -20.1249 0
6.46832 -20.2808 0
6.30594 -20.8509 0
7.02318 -20.2152 0
6.78439 -20.7818 0
6.30594 -20.8509 0
6.13414 -21.3432 0
6.78439 -20.7818 0
6.53304 -21.2716 0
7.02318 -20.2152 0
6.78439 -20.7818 0
7.60723 -20.1249 0
7.29284 -20.6873 0
6.78439 -20.7818 0
6.53304 -21.2716 0
7.29284 -20.6873 0
6.96583 -21.1729 0
5.4104 -21.3955 0
5.41091 -21.7949 0
5.76397 -21.3848 0
5.6747 -21.7933 0
5.41091 -21.7949 0
5.41789 -22.0959 0
5.6747 -21.7933 0
5.59049 -22.1098 0
5.76397 -21.3848 0
5.6747 -21.7933 0
6.13414 -21.3432 0
5.95345 -21.7589 0
5.6747 -21.7933 0
5.59049 -22.1098 0
5.95345 -21.7589 0
5.77155 -22.0965 0
5.41789 -22.0959 0
5.43327 -22.2854 0
5.59049 -22.1098 0
5.51752 -22.3162 0
5.43327 -22.2854 0
5.45485 -22.3504 0
5.51752 -22.3162 0
5.45485 -22.3889 0
5.59049 -22.1098 0
5.51752 -22.3162 0
5.77155 -22.0965 0
5.60411 -22.3337 0
5.51752 -22.3162 0
5.45485 -22.3889 0
5.60411 -22.3337 0
5.45485 -22.4223 0
6.13414 -21.3432 0
5.95345 -21.7589 0
6.53304 -21.2716 0
6.2674 -21.6867 0
5.95345 -21.7589 0
5.77155 -22.0965 0
6.2674 -21.6867 0
5.98282 -22.0415 0
6.53304 -21.2716 0
6.2674 -21.6867 0
6.96583 -21.1729 0
6.6278 -21.5853 0
6.2674 -21.6867 0
5.98282 -22.0415 0
6.6278 -21.5853 0
6.27705 -21.9324 0
5.77155 -22.0965 0
5.60411 -22.3337 0
5.98282 -22.0415 0
5.70128 -22.3351 0
5.60411 -22.3337 0
5.45485 -22.4223 0
5.70128 -22.3351 0
5.45485 -22.4633 0
5.98282 -22.0415 0
5.70128 -22.3351 0
6.27705 -21.9324 0
5.89069 -22.3005 0
5.70128 -22.3351 0
5.45485 -22.4633 0
5.89069 -22.3005 0
5.45485 -22.5093 0
0.973218 -10.9389 0
1.12368 -12.0865 0
2.12106 -10.9802 0
2.23407 -12.1327 0
1.12368 -12.0865 0
1.29093 -13.1951 0
2.23407 -12.1327 0
2.35974 -13.2464 0
2.12106 -10.9802 0
2.23407 -12.1327 0
3.24003 -11.0089 0
3.31463 -12.1653 0
2.23407 -12.1327 0
2.35974 -13.2464 0
3.31463 -12.1653 0
3.39812 -13.2828 0
1.29093 -13.1951 0
1.47532 -14.2604 0
2.35974 -13.2464 0
2.49825 -14.3167 0
1.47532 -14.2604 0
1.677 -15.2777 0
2.49825 -14.3167 0
2.64969 -15.3391 0
2.35974 -13.2464 0
2.49825 -14.3167 0
3.39812 -13.2828 0
3.49039 -14.3568 0
2.49825 -14.3167 0
2.64969 -15.3391 0
3.49039 -14.3568 0
3.59134 -15.3828 0
3.24003 -11.0089 0
3.31463 -12.1653 0