# vtk DataFile Version 3.0
#This file was generated by the deal.II library on 2020/9/2 at 8:40:31
ASCII
DATASET UNSTRUCTURED_GRID

POINTS 1536 double
5 0 0
5.125 0 0
5 0.125 0
5.125 0.125 0
5.125 0 0
5.25 0 0
5.125 0.125 0
5.25 0.125 0
5 0.125 0
5.125 0.125 0
5 0.25 0
5.125 0.25 0
5.125 0.125 0
5.25 0.125 0
5.125 0.25 0
5.25 0.25 0
5.25 0 0
5.375 0 0
5.25 0.125 0
5.375 0.125 0
5.375 0 0
5.5 0 0
5.375 0.125 0
5.5 0.125 0
5.25 0.125 0
5.375 0.125 0
5.25 0.25 0
5.375 0.25 0
5.375 0.125 0
5.5 0.125 0
5.375 0.25 0
5.5 0.25 0
5 0.25 0
5.125 0.25 0
5 0.375 0
5.125 0.375 0
5.125 0.25 0
5.25 0.25 0
5.125 0.375 0
5.25 0.375 0
5 0.375 0
5.125 0.375 0
5 0.5 0
5.125 0.5 0
5.125 0.375 0
5.25 0.375 0
5.125 0.5 0
5.25 0.5 0
5.25 0.25 0
5.375 0.25 0
5.25 0.375 0
5.375 0.375 0
5.375 0.25 0
5.5 0.25 0
5.375 0.375 0
5.5 0.375 0
5.25 0.375 0
5.375 0.375 0
5.25 0.5 0
5.375 0.5 0
5.375 0.375 0
5.5 0.375 0
5.375 0.5 0
5.5 0.5 0
5.5 0 0
5.625 0 0
5.5 0.125 0
5.625 0.125 0
5.625 0 0
5.75 0 0
5.625 0.125 0
5.75 0.125 0
5.5 0.125 0
5.625 0.125 0
5.5 0.25 0
5.625 0.25 0
5.625 0.125 0
5.75 0.125 0
5.625 0.25 0
5.75 0.25 0
5.75 0 0
5.875 0 0
5.75 0.125 0
5.875 0.125 0
5.875 0 0
6 0 0
5.875 0.125 0
6 0.125 0
5.75 0.125 0
5.875 0.125 0
5.75 0.25 0
5.875 0.25 0
5.875 0.125 0
6 0.125 0
5.875 0.25 0
6 0.25 0
5.5 0.25 0
5.625 0.25 0
5.5 0.375 0
5.625 0.375 0
5.625 0.25 0
5.75 0.25 0
5.625 0.375 0
5.75 0.375 0
5.5 0.375 0
5.625 0.375 0
5.5 0.5 0
5.625 0.5 0
5.625 0.375 0
5.75 0.375 0
5.625 0.5 0
5.75 0.5 0
5.75 0.25 0
5.875 0.25 0
5.75 0.375 0
5.875 0.375 0
5.875 0.25 0
6 0.25 0
5.875 0.375 0
6 0.375 0
5.75 0.375 0
5.875 0.375 0
5.75 0.5 0
5.875 0.5 0
5.875 0.375 0
6 0.375 0
5.875 0.5 0
6 0.5 0
5 0.5 0
5.125 0.5 0
5 0.625 0
5.125 0.625 0
5.125 0.5 0
5.25 0.5 0
5.125 0.625 0
5.25 0.625 0
5 0.625 0
5.125 0.625 0
5 0.75 0
5.125 0.75 0
5.125 0.625 0
5.25 0.625 0
5.125 0.75 0
5.25 0.75 0
5.25 0.5 0
5.375 0.5 0
5.25 0.625 0
5.375 0.625 0
5.375 0.5 0
5.5 0.5 0
5.375 0.625 0
5.5 0.625 0
5.25 0.625 0
5.375 0.625 0
5.25 0.75 0
5.375 0.75 0
5.375 0.625 0
5.5 0.625 0
5.375 0.75 0
5.5 0.75 0
5 0.75 0
5.125 0.75 0
5 0.875 0
5.125 0.875 0
5.125 0.75 0
5.25 0.75 0
5.125 0.875 0
5.25 0.875 0
5 0.875 0
5.125 0.875 0
5 1 0
5.125 1 0
5.125 0.875 0
5.25 0.875 0
5.125 1 0
5.25 1 0
5.25 0.75 0
5.375 0.75 0
5.25 0.875 0
5.375 0.875 0
5.375 0.75 0
5.5 0.75 0
5.375 0.875 0
5.5 0.875 0
5.25 0.875 0
5.375 0.875 0
5.25 1 0
5.375 1 0
5.375 0.875 0
5.5 0.875 0
5.375 1 0
5.5 1 0
5.5 0.5 0
5.625 0.5 0
5.5 0.625 0
5.625 0.625 0
5.625 0.5 0
5.75 0.5 0
5.625 0.625 0
5.75 0.625 0
5.5 0.625 0
5.625 0.625 0
5.5 0.75 0
5.625 0.75 0
5.625 0.625 0
5.75 0.625 0
5.625 0.75 0
5.75 0.75 0
5.75 0.5 0
5.875 0.5 0
5.75 0.625 0
5.875 0.625 0
5.875 0.5 0
6 0.5 0
5.875 0.625 0
6 0.625 0
5.75 0.625 0
5.875 0.625 0
5.75 0.75 0
5.875 0.75 0
5.875 0.625 0
6 0.625 0
5.875 0.75 0
6 0.75 0
5.5 0.75 0
5.625 0.75 0
5.5 0.875 0
5.625 0.875 0
5.625 0.75 0
5.75 0.75 0
5.625 0.875 0
5.75 0.875 0
5.5 0.875 0
5.625 0.875 0
5.5 1 0
5.625 1 0
5.625 0.875 0
5.75 0.875 0
5.625 1 0
5.75 1 0
5.75 0.75 0
5.875 0.75 0
5.75 0.875 0
5.875 0.875 0
5.875 0.75 0
6 0.75 0
5.875 0.875 0
6 0.875 0
5.75 0.875 0
5.875 0.875 0
5.75 1 0
5.875 1 0
5.875 0.875 0
6 0.875 0
5.875 1 0
6 1 0
4 0 0
4.125 0 0
4 0.125 0
4.125 0.125 0
4.125 0 0
4.25 0 0
4.125 0.125 0
4.25 0.125 0
4 0.125 0
4.125 0.125 0
4 0.25 0
4.125 0.25 0
4.125 0.125 0
4.25 0.125 0
4.125 0.25 0
4.25 0.25 0
4.25 0 0
4.375 0 0
4.25 0.125 0
4.375 0.125 0
4.375 0 0
4.5 0 0
4.375 0.125 0
4.5 0.125 0
4.25 0.125 0
4.375 0.125 0
4.25 0.25 0
4.375 0.25 0
4.375 0.125 0
4.5 0.125 0
4.375 0.25 0
4.5 0.25 0
4 0.25 0
4.125 0.25 0
4 0.375 0
4.125 0.375 0
4.125 0.25 0
4.25 0.25 0
4.125 0.375 0
4.25 0.375 0
4 0.375 0
4.125 0.375 0
4 0.5 0
4.125 0.5 0
4.125 0.375 0
4.25 0.375 0
4.125 0.5 0
4.25 0.5 0
4.25 0.25 0
4.375 0.25 0
4.25 0.375 0
4.375 0.375 0
4.375 0.25 0
4.5 0.25 0
4.375 0.375 0
4.5 0.375 0
4.25 0.375 0
4.375 0.375 0
4.25 0.5 0
4.375 0.5 0
4.375 0.375 0
4.5 0.375 0
4.375 0.5 0
4.5 0.5 0
4.5 0 0
4.625 0 0
4.5 0.125 0
4.625 0.125 0
4.625 0 0
4.75 0 0
4.625 0.125 0
4.75 0.125 0
4.5 0.125 0
4.625 0.125 0
4.5 0.25 0
4.625 0.25 0
4.625 0.125 0
4.75 0.125 0
4.625 0.25 0
4.75 0.25 0
4.75 0 0
4.875 0 0
4.75 0.125 0
4.875 0.125 0
4.875 0 0
5 0 0
4.875 0.125 0
5 0.125 0
4.75 0.125 0
4.875 0.125 0
4.75 0.25 0
4.875 0.25 0
4.875 0.125 0
5 0.125 0
4.875 0.25 0
5 0.25 0
4.5 0.25 0
4.625 0.25 0
4.5 0.375 0
4.625 0.375 0
4.625 0.25 0
4.75 0.25 0
4.625 0.375 0
4.75 0.375 0
4.5 0.375 0
4.625 0.375 0
4.5 0.5 0
4.625 0.5 0
4.625 0.375 0
4.75 0.375 0
4.625 0.5 0
4.75 0.5 0
4.75 0.25 0
4.875 0.25 0
4.75 0.375 0
4.875 0.375 0
4.875 0.25 0
5 0.25 0
4.875 0.375 0
5 0.375 0
4.75 0.375 0
4.875 0.375 0
4.75 0.5 0
4.875 0.5 0
4.875 0.375 0
5 0.375 0
4.875 0.5 0
5 0.5 0
4 0.5 0
4.125 0.5 0
4 0.625 0
4.125 0.625 0
4.125 0.5 0
4.25 0.5 0
4.125 0.625 0
4.25 0.625 0
4 0.625 0
4.125 0.625 0
4 0.75 0
4.125 0.75 0
4.125 0.625 0
4.25 0.625 0
4.125 0.75 0
4.25 0.75 0
4.25 0.5 0
4.375 0.5 0
4.25 0.625 0
4.375 0.625 0
4.375 0.5 0
4.5 0.5 0
4.375 0.625 0
4.5 0.625 0
4.25 0.625 0
4.375 0.625 0
4.25 0.75 0
4.375 0.75 0
4.375 0.625 0
4.5 0.625 0
4.375 0.75 0
4.5 0.75 0
4 0.75 0
4.125 0.75 0
4 0.875 0
4.125 0.875 0
4.125 0.75 0
4.25 0.75 0
4.125 0.875 0
4.25 0.875 0
4 0.875 0
4.125 0.875 0
4 1 0
4.125 1 0
4.125 0.875 0
4.25 0.875 0
4.125 1 0
4.25 1 0
4.25 0.75 0
4.375 0.75 0
4.25 0.875 0
4.375 0.875 0
4.375 0.75 0
4.5 0.75 0
4.375 0.875 0
4.5 0.875 0
4.25 0.875 0
4.375 0.875 0
4.25 1 0
4.375 1 0
4.375 0.875 0
4.5 0.875 0
4.375 1 0
4.5 1 0
4.5 0.5 0
4.625 0.5 0
4.5 0.625 0
4.625 0.625 0
4.625 0.5 0
4.75 0.5 0
4.625 0.625 0
4.75 0.625 0
4.5 0.625 0
4.625 0.625 0
4.5 0.75 0
4.625 0.75 0
4.625 0.625 0
4.75 0.625 0
4.625 0.75 0
4.75 0.75 0
4.75 0.5 0
4.875 0.5 0
4.75 0.625 0
4.875 0.625 0
4.875 0.5 0
5 0.5 0
4.875 0.625 0
5 0.625 0
4.75 0.625 0
4.875 0.625 0
4.75 0.75 0
4.875 0.75 0
4.875 0.625 0
5 0.625 0
4.875 0.75 0
5 0.75 0
4.5 0.75 0
4.625 0.75 0
4.5 0.875 0
4.625 0.875 0
4.625 0.75 0
4.75 0.75 0
4.625 0.875 0
4.75 0.875 0
4.5 0.875 0
4.625 0.875 0
4.5 1 0
4.625 1 0
4.625 0.875 0
4.75 0.875 0
4.625 1 0
4.75 1 0
4.75 0.75 0
4.875 0.75 0
4.75 0.875 0
4.875 0.875 0
4.875 0.75 0
5 0.75 0
4.875 0.875 0
5 0.875 0
4.75 0.875 0
4.875 0.875 0
4.75 1 0
4.875 1 0
4.875 0.875 0
5 0.875 0
4.875 1 0
5 1 0
3 0 0
3.125 0 0
3 0.125 0
3.125 0.125 0
3.125 0 0
3.25 0 0
3.125 0.125 0
3.25 0.125 0
3 0.125 0
3.125 0.125 0
3 0.25 0
3.125 0.25 0
3.125 0.125 0
3.25 0.125 0
3.125 0.25 0
3.25 0.25 0
3.25 0 0
3.375 0 0
3.25 0.125 0
3.375 0.125 0
3.375 0 0
3.5 0 0
3.375 0.125 0
3.5 0.125 0
3.25 0.125 0
3.375 0.125 0
3.25 0.25 0
3.375 0.25 0
3.375 0.125 0
3.5 0.125 0
3.375 0.25 0
3.5 0.25 0
3 0.25 0
3.125 0.25 0
3 0.375 0
3.125 0.375 0
3.125 0.25 0
3.25 0.25 0
3.125 0.375 0
3.25 0.375 0
3 0.375 0
3.125 0.375 0
3 0.5 0
3.125 0.5 0
3.125 0.375 0
3.25 0.375 0
3.125 0.5 0
3.25 0.5 0
3.25 0.25 0
3.375 0.25 0
3.25 0.375 0
3.375 0.375 0
3.375 0.25 0
3.5 0.25 0
3.375 0.375 0
3.5 0.375 0
3.25 0.375 0
3.375 0.375 0
3.25 0.5 0
3.375 0.5 0
3.375 0.375 0
3.5 0.375 0
3.375 0.5 0
3.5 0.5 0
3.5 0 0
3.625 0 0
3.5 0.125 0
3.625 0.125 0
3.625 0 0
3.75 0 0
3.625 0.125 0
3.75 0.125 0
3.5 0.125 0
3.625 0.125 0
3.5 0.25 0
3.625 0.25 0
3.625 0.125 0
3.75 0.125 0
3.625 0.25 0
3.75 0.25 0
3.75 0 0
3.875 0 0
3.75 0.125 0
3.875 0.125 0
3.875 0 0
4 0 0
3.875 0.125 0
4 0.125 0
3.75 0.125 0
3.875 0.125 0
3.75 0.25 0
3.875 0.25 0
3.875 0.125 0
4 0.125 0
3.875 0.25 0
4 0.25 0
3.5 0.25 0
3.625 0.25 0
3.5 0.375 0
3.625 0.375 0
3.625 0.25 0
3.75 0.25 0
3.625 0.375 0
3.75 0.375 0
3.5 0.375 0
3.625 0.375 0
3.5 0.5 0
3.625 0.5 0
3.625 0.375 0
3.75 0.375 0
3.625 0.5 0
3.75 0.5 0
3.75 0.25 0
3.875 0.25 0
3.75 0.375 0
3.875 0.375 0
3.875 0.25 0
4 0.25 0
3.875 0.375 0
4 0.375 0
3.75 0.375 0
3.875 0.375 0
3.75 0.5 0
3.875 0.5 0
3.875 0.375 0
4 0.375 0
3.875 0.5 0
4 0.5 0
3 0.5 0
3.125 0.5 0
3 0.625 0
3.125 0.625 0
3.125 0.5 0
3.25 0.5 0
3.125 0.625 0
3.25 0.625 0
3 0.625 0
3.125 0.625 0
3 0.75 0
3.125 0.75 0
3.125 0.625 0
3.25 0.625 0
3.125 0.75 0
3.25 0.75 0
3.25 0.5 0
3.375 0.5 0
3.25 0.625 0
3.375 0.625 0
3.375 0.5 0
3.5 0.5 0
3.375 0.625 0
3.5 0.625 0
3.25 0.625 0
3.375 0.625 0
3.25 0.75 0
3.375 0.75 0
3.375 0.625 0
3.5 0.625 0
3.375 0.75 0
3.5 0.75 0
3 0.75 0
3.125 0.75 0
3 0.875 0
3.125 0.875 0
3.125 0.75 0
3.25 0.75 0
3.125 0.875 0
3.25 0.875 0
3 0.875 0
3.125 0.875 0
3 1 0
3.125 1 0
3.125 0.875 0
3.25 0.875 0
3.125 1 0
3.25 1 0
3.25 0.75 0
3.375 0.75 0
3.25 0.875 0
3.375 0.875 0
3.375 0.75 0
3.5 0.75 0
3.375 0.875 0
3.5 0.875 0
3.25 0.875 0
3.375 0.875 0
3.25 1 0
3.375 1 0
3.375 0.875 0
3.5 0.875 0
3.375 1 0
3.5 1 0
3.5 0.5 0
3.625 0.5 0
3.5 0.625 0
3.625 0.625 0
3.625 0.5 0
3.75 0.5 0
3.625 0.625 0
3.75 0.625 0
3.5 0.625 0
3.625 0.625 0
3.5 0.75 0
3.625 0.75 0
3.625 0.625 0
3.75 0.625 0
3.625 0.75 0
3.75 0.75 0
3.75 0.5 0
3.875 0.5 0
3.75 0.625 0
3.875 0.625 0
3.875 0.5 0
4 0.5 0
3.875 0.625 0
4 0.625 0
3.75 0.625 0
3.875 0.625 0
3.75 0.75 0
3.875 0.75 0
3.875 0.625 0
4 0.625 0
3.875 0.75 0
4 0.75 0
3.5 0.75 0
3.625 0.75 0
3.5 0.875 0
3.625 0.875 0
3.625 0.75 0
3.75 0.75 0
3.625 0.875 0
3.75 0.875 0
3.5 0.875 0
3.625 0.875 0
3.5 1 0
3.625 1 0
3.625 0.875 0
3.75 0.875 0
3.625 1 0
3.75 1 0
3.75 0.75 0
3.875 0.75 0
3.75 0.875 0
3.875 0.875 0
3.875 0.75 0
4 0.75 0
3.875 0.875 0
4 0.875 0
3.75 0.875 0
3.875 0.875 0
3.75 1 0
3.875 1 0
3.875 0.875 0
4 0.875 0
3.875 1 0
4 1 0
2 0 0
2.125 0 0
2 0.125 0
2.125 0.125 0
2.125 0 0
2.25 0 0
2.125 0.125 0
2.25 0.125 0
2 0.125 0
2.125 0.125 0
2 0.25 0
2.125 0.25 0
2.125 0.125 0
2.25 0.125 0
2.125 0.25 0
2.25 0.25 0
2.25 0 0
2.375 0 0
2.25 0.125 0
2.375 0.125 0
2.375 0 0
2.5 0 0
2.375 0.125 0
2.5 0.125 0
2.25 0.125 0
2.375 0.125 0
2.25 0.25 0
2.375 0.25 0
2.375 0.125 0
2.5 0.125 0
2.375 0.25 0
2.5 0.25 0
2 0.25 0
2.125 0.25 0
2 0.375 0
2.125 0.375 0
2.125 0.25 0
2.25 0.25 0
2.125 0.375 0
2.25 0.375 0
2 0.375 0
2.125 0.375 0
2 0.5 0
2.125 0.5 0
2.125 0.375 0
2.25 0.375 0
2.125 0.5 0
2.25 0.5 0
2.25 0.25 0
2.375 0.25 0
2.25 0.375 0
2.375 0.375 0
2.375 0.25 0
[...]
POINT_DATA 1536
VECTORS displacements double
38.0117 -44.408 0
38.735 -39.7384 0
33.5373 -44.6223 0
34.0776 -39.9425 0
38.735 -39.7384 0
39.429 -34.8881 0
34.0776 -39.9425 0
34.5912 -35.0831 0
33.5373 -44.6223 0
34.0776 -39.9425 0
29.4933 -44.7679 0
29.8532 -40.0785 0
34.0776 -39.9425 0
34.5912 -35.0831 0
29.8532 -40.0785 0
30.1913 -35.2067 0
39.429 -34.8881 0
40.0962 -29.8638 0
34.5912 -35.0831 0
35.0807 -30.048 0
40.0962 -29.8638 0
40.7503 -24.664 0
35.0807 -30.048 0
35.5393 -24.8445 0
34.5912 -35.0831 0
35.0807 -30.048 0
30.1913 -35.2067 0
30.497 -30.1596 0
35.0807 -30.048 0
35.5393 -24.8445 0
30.497 -30.1596 0
30.7769 -24.9319 0
29.4933 -44.7679 0
29.8532 -40.0785 0
25.6278 -44.8393 0
25.8049 -40.1413 0
29.8532 -40.0785 0
30.1913 -35.2067 0
25.8049 -40.1413 0
25.9597 -35.2572 0
25.6278 -44.8393 0
25.8049 -40.1413 0
21.8385 -44.8383 0
21.8334 -40.1297 0
25.8049 -40.1413 0
25.9597 -35.2572 0
21.8334 -40.1297 0
21.8136 -35.2363 0
30.1913 -35.2067 0
30.497 -30.1596 0
25.9597 -35.2572 0
26.0968 -30.1904 0
30.497 -30.1596 0
30.7769 -24.9319 0
26.0968 -30.1904 0
26.1882 -24.9512 0
25.9597 -35.2572 0
26.0968 -30.1904 0
21.8136 -35.2363 0
21.7679 -30.16 0
26.0968 -30.1904 0
26.1882 -24.9512 0
21.7679 -30.16 0
21.7144 -24.9022 0
40.7503 -24.664 0
41.3983 -19.2868 0
35.5393 -24.8445 0
35.9727 -19.4465 0
41.3983 -19.2868 0
42.1091 -13.652 0
35.9727 -19.4465 0
36.3251 -13.8494 0
35.5393 -24.8445 0
35.9727 -19.4465 0
30.7769 -24.9319 0
30.9963 -19.5201 0
35.9727 -19.4465 0
36.3251 -13.8494 0
30.9963 -19.5201 0
31.1521 -13.8498 0
42.1091 -13.652 0
42.9206 -7.74109 0
36.3251 -13.8494 0
36.4793 -7.66511 0
42.9206 -7.74109 0
43.3565 0 0
36.4793 -7.66511 0
36.6636 -1.39546 0
36.3251 -13.8494 0
36.4793 -7.66511 0
31.1521 -13.8498 0
31.1478 -7.92564 0
36.4793 -7.66511 0
36.6636 -1.39546 0
31.1478 -7.92564 0
31.2928 -2.35573 0
30.7769 -24.9319 0
30.9963 -19.5201 0
26.1882 -24.9512 0
26.2542 -19.5156 0
30.9963 -19.5201 0
31.1521 -13.8498 0
26.2542 -19.5156 0
26.202 -13.9231 0
26.1882 -24.9512 0
26.2542 -19.5156 0
21.7144 -24.9022 0
21.5979 -19.5318 0
26.2542 -19.5156 0
26.202 -13.9231 0
21.5979 -19.5318 0
21.4895 -14.0947 0
31.1521 -13.8498 0
31.1478 -7.92564 0
26.202 -13.9231 0
26.2041 -8.3453 0
31.1478 -7.92564 0
31.2928 -2.35573 0
26.2041 -8.3453 0
26.306 -3.00204 0
26.202 -13.9231 0
26.2041 -8.3453 0
21.4895 -14.0947 0
21.4571 -8.69223 0
26.2041 -8.3453 0
26.306 -3.00204 0
21.4571 -8.69223 0
21.5341 -3.55354 0
21.8385 -44.8383 0
21.8334 -40.1297 0
18.0484 -44.7657 0
17.8551 -40.0541 0
21.8334 -40.1297 0
21.8136 -35.2363 0
17.8551 -40.0541 0
17.6605 -35.1489 0
18.0484 -44.7657 0
17.8551 -40.0541 0
14.1684 -44.6269 0
13.7931 -39.9188 0
17.8551 -40.0541 0
17.6605 -35.1489 0
13.7931 -39.9188 0
13.422 -35.0361 0
21.8136 -35.2363 0
21.7679 -30.16 0
17.6605 -35.1489 0
17.4588 -30.0768 0
21.7679 -30.16 0
21.7144 -24.9022 0
17.4588 -30.0768 0
17.2347 -24.8738 0
17.6605 -35.1489 0
17.4588 -30.0768 0
13.422 -35.0361 0
13.0524 -29.9961 0
17.4588 -30.0768 0
17.2347 -24.8738 0
13.0524 -29.9961 0
12.7212 -24.8375 0
14.1684 -44.6269 0
13.7931 -39.9188 0
10.0847 -44.4488 0
9.52637 -39.7545 0
13.7931 -39.9188 0
13.422 -35.0361 0
9.52637 -39.7545 0
8.9984 -34.8994 0
10.0847 -44.4488 0
9.52637 -39.7545 0
5.65273 -44.2343 0
4.98681 -39.5555 0
9.52637 -39.7545 0
8.9984 -34.8994 0
4.98681 -39.5555 0
4.40222 -34.7425 0
13.422 -35.0361 0
13.0524 -29.9961 0
8.9984 -34.8994 0
8.5438 -29.8932 0
13.0524 -29.9961 0
12.7212 -24.8375 0
8.5438 -29.8932 0
8.18501 -24.8012 0
8.9984 -34.8994 0
8.5438 -29.8932 0
4.40222 -34.7425 0
3.87202 -29.7875 0
8.5438 -29.8932 0
8.18501 -24.8012 0
3.87202 -29.7875 0
3.37368 -24.6963 0
21.7144 -24.9022 0
21.5979 -19.5318 0
17.2347 -24.8738 0
17.0213 -19.5757 0
21.5979 -19.5318 0
21.4895 -14.0947 0
17.0213 -19.5757 0
16.8841 -14.2506 0
17.2347 -24.8738 0
17.0213 -19.5757 0
12.7212 -24.8375 0
12.4827 -19.6153 0
17.0213 -19.5757 0
16.8841 -14.2506 0
12.4827 -19.6153 0
12.313 -14.3622 0
21.4895 -14.0947 0
21.4571 -8.69223 0
16.8841 -14.2506 0
16.8318 -8.97479 0
21.4571 -8.69223 0
21.5341 -3.55354 0
16.8318 -8.97479 0
16.8959 -3.99804 0
16.8841 -14.2506 0
16.8318 -8.97479 0
12.313 -14.3622 0
12.2435 -9.17881 0
16.8318 -8.97479 0
16.8959 -3.99804 0
12.2435 -9.17881 0
12.2682 -4.26905 0
12.7212 -24.8375 0
12.4827 -19.6153 0
8.18501 -24.8012 0
7.87707 -19.6105 0
12.4827 -19.6153 0
12.313 -14.3622 0
7.87707 -19.6105 0
7.65643 -14.3951 0
8.18501 -24.8012 0
7.87707 -19.6105 0
3.37368 -24.6963 0
2.97852 -19.5316 0
7.87707 -19.6105 0
7.65643 -14.3951 0
2.97852 -19.5316 0
2.73581 -14.3626 0
12.313 -14.3622 0
12.2435 -9.17881 0
7.65643 -14.3951 0
7.54914 -9.27732 0
12.2435 -9.17881 0
12.2682 -4.26905 0
7.54914 -9.27732 0
7.53091 -4.35705 0
7.65643 -14.3951 0
7.54914 -9.27732 0
2.73581 -14.3626 0
2.65479 -9.29339 0
7.54914 -9.27732 0
7.53091 -4.35705 0
2.65479 -9.29339 0
2.6495 -4.36278 0
31.0139 -74.3123 0
32.0159 -71.3939 0
28.3248 -74.6063 0
29.0583 -71.6773 0
32.0159 -71.3939 0
32.9783 -68.2151 0
29.0583 -71.6773 0
29.7695 -68.4882 0
28.3248 -74.6063 0
29.0583 -71.6773 0
26.0206 -74.8042 0
26.4879 -71.8684 0
29.0583 -71.6773 0
29.7695 -68.4882 0
26.4879 -71.8684 0
26.9507 -68.6727 0
32.9783 -68.2151 0
33.9032 -64.7922 0
29.7695 -68.4882 0
30.4577 -65.0552 0
33.9032 -64.7922 0
34.7924 -61.1382 0
30.4577 -65.0552 0
31.1222 -61.3915 0
29.7695 -68.4882 0
30.4577 -65.0552 0
26.9507 -68.6727 0
27.4072 -65.2327 0
30.4577 -65.0552 0
31.1222 -61.3915 0
27.4072 -65.2327 0
27.8545 -61.5624 0
26.0206 -74.8042 0
26.4879 -71.8684 0
23.9416 -74.9047 0
24.1395 -71.965 0
26.4879 -71.8684 0
26.9507 -68.6727 0
24.1395 -71.965 0
24.3474 -68.767 0
23.9416 -74.9047 0
24.1395 -71.965 0
21.9361 -74.9106 0
21.8744 -71.9689 0
24.1395 -71.965 0
24.3474 -68.767 0
21.8744 -71.9689 0
21.8333 -68.7724 0
26.9507 -68.6727 0
27.4072 -65.2327 0
24.3474 -68.767 0
24.564 -65.3246 0
27.4072 -65.2327 0
27.8545 -61.5624 0
24.564 -65.3246 0
24.7861 -61.6513 0
24.3474 -68.767 0
24.564 -65.3246 0
21.8333 -68.7724 0
21.812 -65.3325 0
24.564 -65.3246 0
24.7861 -61.6513 0
21.812 -65.3325 0
21.8071 -61.6607 0
34.7924 -61.1382 0
35.6473 -57.2638 0
31.1222 -61.3915 0
31.763 -57.5076 0
35.6473 -57.2638 0
36.4685 -53.1785 0
31.763 -57.5076 0
32.3796 -53.4125 0
31.1222 -61.3915 0
31.763 -57.5076 0
27.8545 -61.5624 0
28.2891 -57.673 0
31.763 -57.5076 0
32.3796 -53.4125 0
28.2891 -57.673 0
28.7088 -53.5725 0
36.4685 -53.1785 0
37.2565 -48.8906 0
32.3796 -53.4125 0
32.9711 -49.1149 0
37.2565 -48.8906 0
38.0117 -44.408 0
32.9711 -49.1149 0
33.5373 -44.6223 0
32.3796 -53.4125 0
32.9711 -49.1149 0
28.7088 -53.5725 0
29.1113 -49.2681 0
32.9711 -49.1149 0
33.5373 -44.6223 0
29.1113 -49.2681 0
29.4933 -44.7679 0
27.8545 -61.5624 0
28.2891 -57.673 0
24.7861 -61.6513 0
25.0086 -57.7585 0
28.2891 -57.673 0
28.7088 -53.5725 0
25.0086 -57.7585 0
25.2256 -53.6552 0
24.7861 -61.6513 0
25.0086 -57.7585 0
21.8071 -61.6607 0
21.8136 -57.7672 0
25.0086 -57.7585 0
25.2256 -53.6552 0
21.8136 -57.7672 0
21.8255 -53.6611 0
28.7088 -53.5725 0
29.1113 -49.2681 0
25.2256 -53.6552 0
25.4329 -49.3469 0
29.1113 -49.2681 0
29.4933 -44.7679 0
25.4329 -49.3469 0
25.6278 -44.8393 0
25.2256 -53.6552 0
25.4329 -49.3469 0
21.8255 -53.6611 0
21.8356 -49.3501 0
25.4329 -49.3469 0
25.6278 -44.8393 0
21.8356 -49.3501 0
21.8385 -44.8383 0
21.9361 -74.9106 0
21.8744 -71.9689 0
19.899 -74.8278 0
19.5932 -71.886 0
21.8744 -71.9689 0
21.8333 -68.7724 0
19.5932 -71.886 0
19.3148 -68.6948 0
19.899 -74.8278 0
19.5932 -71.886 0
17.7409 -74.6644 0
17.2084 -71.7262 0
19.5932 -71.886 0
19.3148 -68.6948 0
17.2084 -71.7262 0
16.7049 -68.5442 0
21.8333 -68.7724 0
21.812 -65.3325 0
19.3148 -68.6948 0
19.0628 -65.2621 0
21.812 -65.3325 0
21.8071 -61.6607 0
19.0628 -65.2621 0
18.8334 -61.5961 0
19.3148 -68.6948 0
19.0628 -65.2621 0
16.7049 -68.5442 0
16.2288 -65.122 0
19.0628 -65.2621 0
18.8334 -61.5961 0
16.2288 -65.122 0
15.7775 -61.4644 0
17.7409 -74.6644 0
17.2084 -71.7262 0
15.3484 -74.4349 0
14.603 -71.5043 0
17.2084 -71.7262 0
16.7049 -68.5442 0
14.603 -71.5043 0
13.8828 -68.3325 0
15.3484 -74.4349 0
14.603 -71.5043 0
12.6102 -74.1426 0
11.6305 -71.2202 0
14.603 -71.5043 0
13.8828 -68.3325 0
11.6305 -71.2202 0
10.6763 -68.0571 0
16.7049 -68.5442 0
16.2288 -65.122 0
13.8828 -68.3325 0
13.1881 -64.9204 0
16.2288 -65.122 0
15.7775 -61.4644 0
13.1881 -64.9204 0
12.5192 -61.2715 0
13.8828 -68.3325 0
13.1881 -64.9204 0
10.6763 -68.0571 0
9.7502 -64.6543 0
13.1881 -64.9204 0
12.5192 -61.2715 0
9.7502 -64.6543 0
8.85468 -61.015 0
21.8071 -61.6607 0
21.8136 -57.7672 0
18.8334 -61.5961 0
18.6223 -57.7048 0
21.8136 -57.7672 0
21.8255 -53.6611 0
18.6223 -57.7048 0
18.425 -53.5967 0
18.8334 -61.5961 0
18.6223 -57.7048 0
15.7775 -61.4644 0
15.3488 -57.5775 0
18.6223 -57.7048 0
18.425 -53.5967 0
15.3488 -57.5775 0
14.9402 -53.4689 0
21.8255 -53.6611 0
21.8356 -49.3501 0
18.425 -53.5967 0
18.2363 -49.2808 0
21.8356 -49.3501 0
21.8385 -44.8383 0
18.2363 -49.2808 0
18.0484 -44.7657 0
18.425 -53.5967 0
18.2363 -49.2808 0
14.9402 -53.4689 0
14.5485 -49.1481 0
18.2363 -49.2808 0
18.0484 -44.7657 0
14.5485 -49.1481 0
14.1684 -44.6269 0
15.7775 -61.4644 0
15.3488 -57.5775 0
12.5192 -61.2715 0
11.8758 -57.3909 0
15.3488 -57.5775 0
14.9402 -53.4689 0
11.8758 -57.3909 0
11.2571 -53.2858 0
12.5192 -61.2715 0
11.8758 -57.3909 0
8.85468 -61.015 0
7.99253 -57.1442 0
11.8758 -57.3909 0
11.2571 -53.2858 0
7.99253 -57.1442 0
7.16725 -53.0491 0
14.9402 -53.4689 0
14.5485 -49.1481 0
11.2571 -53.2858 0
10.6611 -48.9666 0
14.5485 -49.1481 0
14.1684 -44.6269 0
10.6611 -48.9666 0
10.0847 -44.4488 0
11.2571 -53.2858 0
10.6611 -48.9666 0
7.16725 -53.0491 0
6.3843 -48.7404 0
10.6611 -48.9666 0
10.0847 -44.4488 0
6.3843 -48.7404 0
5.65273 -44.2343 0
21.6782 -86.1341 0
22.9393 -85.9318 0
21.6782 -86.4964 0
22.5603 -86.2923 0
22.9393 -85.9318 0
24.1869 -85.3313 0
22.5603 -86.2923 0
23.4385 -85.6865 0
21.6782 -86.4964 0
22.5603 -86.2923 0
21.6782 -86.8589 0
22.328 -86.6401 0
22.5603 -86.2923 0
23.4385 -85.6865 0
22.328 -86.6401 0
22.9458 -85.9994 0
24.1869 -85.3313 0
25.4105 -84.3492 0
23.4385 -85.6865 0
24.3072 -84.6964 0
25.4105 -84.3492 0
26.604 -83.0048 0
24.3072 -84.6964 0
25.1587 -83.3423 0
23.4385 -85.6865 0
24.3072 -84.6964 0
22.9458 -85.9994 0
23.5206 -84.9743 0
24.3072 -84.6964 0
25.1587 -83.3423 0
23.5206 -84.9743 0
24.0601 -83.5954 0
21.6782 -86.8589 0
22.328 -86.6401 0
21.6782 -87.3138 0
22.1426 -87.0723 0
22.328 -86.6401 0
22.9458 -85.9994 0
22.1426 -87.0723 0
22.5552 -86.3726 0
21.6782 -87.3138 0
22.1426 -87.0723 0
21.6782 -87.7768 0
21.9447 -87.5088 0
22.1426 -87.0723 0
22.5552 -86.3726 0
21.9447 -87.5088 0
22.1433 -86.7362 0
22.9458 -85.9994 0
23.5206 -84.9743 0
22.5552 -86.3726 0
22.8916 -85.2713 0
23.5206 -84.9743 0
24.0601 -83.5954 0
22.8916 -85.2713 0
23.1608 -83.8185 0
22.5552 -86.3726 0
22.8916 -85.2713 0
22.1433 -86.7362 0
22.243 -85.5378 0
22.8916 -85.2713 0
23.1608 -83.8185 0
22.243 -85.5378 0
22.2523 -83.9914 0
26.604 -83.0048 0
27.7639 -81.3141 0
25.1587 -83.3423 0
25.987 -81.6411 0
27.7639 -81.3141 0
28.887 -79.2912 0
25.987 -81.6411 0
26.7905 -79.6072 0
25.1587 -83.3423 0
25.987 -81.6411 0
24.0601 -83.5954 0
24.5755 -81.8757 0
25.987 -81.6411 0
26.7905 -79.6072 0
24.5755 -81.8757 0
25.0699 -79.8278 0
28.887 -79.2912 0
29.9709 -76.9514 0
26.7905 -79.6072 0
27.5693 -77.2563 0
29.9709 -76.9514 0
31.0139 -74.3123 0
27.5693 -77.2563 0
28.3248 -74.6063 0
26.7905 -79.6072 0
27.5693 -77.2563 0
25.0699 -79.8278 0
25.5486 -77.4633 0
27.5693 -77.2563 0
28.3248 -74.6063 0
25.5486 -77.4633 0
26.0206 -74.8042 0
24.0601 -83.5954 0
24.5755 -81.8757 0
23.1608 -83.8185 0
23.3797 -82.0438 0
24.5755 -81.8757 0
25.0699 -79.8278 0
23.3797 -82.0438 0
23.5682 -79.9564 0
23.1608 -83.8185 0
23.3797 -82.0438 0
22.2523 -83.9914 0
22.1949 -82.1334 0
23.3797 -82.0438 0
23.5682 -79.9564 0
22.1949 -82.1334 0
22.1074 -79.9967 0
25.0699 -79.8278 0
25.5486 -77.4633 0
23.5682 -79.9564 0
23.7526 -77.5726 0
25.5486 -77.4633 0
26.0206 -74.8042 0
23.7526 -77.5726 0
23.9416 -74.9047 0
23.5682 -79.9564 0
23.7526 -77.5726 0
22.1074 -79.9967 0
22.016 -77.5883 0
23.7526 -77.5726 0
23.9416 -74.9047 0
22.016 -77.5883 0
21.9361 -74.9106 0
21.6782 -87.7768 0
21.9447 -87.5088 0
21.6782 -88.2365 0
21.7236 -87.9254 0
21.9447 -87.5088 0
22.1433 -86.7362 0
21.7236 -87.9254 0
21.6773 -87.042 0
21.6782 -88.2365 0
21.7236 -87.9254 0
21.6782 -88.681 0
21.4344 -88.2924 0
21.7236 -87.9254 0
21.6773 -87.042 0
21.4344 -88.2924 0
21.0979 -87.2302 0
22.1433 -86.7362 0
22.243 -85.5378 0
21.6773 -87.042 0
21.5107 -85.7205 0
22.243 -85.5378 0
22.2523 -83.9914 0
21.5107 -85.7205 0
21.2453 -84.061 0
21.6773 -87.042 0
21.5107 -85.7205 0
21.0979 -87.2302 0
20.6219 -85.75 0
21.5107 -85.7205 0
21.2453 -84.061 0
20.6219 -85.75 0
20.0614 -84.003 0
21.6782 -88.681 0
21.4344 -88.2924 0
21.6782 -89.0822 0
21.061 -88.4799 0
21.4344 -88.2924 0
21.0979 -87.2302 0
21.061 -88.4799 0
20.2794 -87.1653 0
21.6782 -89.0822 0
21.061 -88.4799 0
21.6782 -89.0824 0
20.2287 -88.3304 0
21.061 -88.4799 0
20.2794 -87.1653 0
20.2287 -88.3304 0
18.9653 -86.838 0
21.0979 -87.2302 0
20.6219 -85.75 0
20.2794 -87.1653 0
19.4158 -85.5846 0
20.6219 -85.75 0
20.0614 -84.003 0
19.4158 -85.5846 0
18.5622 -83.8017 0
20.2794 -87.1653 0
19.4158 -85.5846 0
18.9653 -86.838 0
17.8304 -85.2658 0
19.4158 -85.5846 0
18.5622 -83.8017 0
17.8304 -85.2658 0
16.7415 -83.4841 0
22.2523 -83.9914 0
22.1949 -82.1334 0
21.2453 -84.061 0
20.9212 -82.1305 0
22.1949 -82.1334 0
22.1074 -79.9967 0
20.9212 -82.1305 0
20.5748 -79.9479 0
21.2453 -84.061 0
20.9212 -82.1305 0
20.0614 -84.003 0
19.4736 -82.0209 0
20.9212 -82.1305 0
20.5748 -79.9479 0
19.4736 -82.0209 0
18.882 -79.8074 0
22.1074 -79.9967 0
22.016 -77.5883 0
20.5748 -79.9479 0
20.229 -77.515 0
22.016 -77.5883 0
21.9361 -74.9106 0
20.229 -77.515 0
19.899 -74.8278 0
20.5748 -79.9479 0
20.229 -77.515 0
18.882 -79.8074 0
18.3009 -77.3573 0
20.229 -77.515 0
19.899 -74.8278 0
18.3009 -77.3573 0
17.7409 -74.6644 0
20.0614 -84.003 0
19.4736 -82.0209 0
18.5622 -83.8017 0
17.7265 -81.8019 0
19.4736 -82.0209 0
18.882 -79.8074 0
17.7265 -81.8019 0
16.9113 -79.5789 0
18.5622 -83.8017 0
17.7265 -81.8019 0
16.7415 -83.4841 0
15.6784 -81.4898 0
17.7265 -81.8019 0
16.9113 -79.5789 0
15.6784 -81.4898 0
14.6359 -79.2726 0
18.882 -79.8074 0
18.3009 -77.3573 0
16.9113 -79.5789 0
16.1182 -77.1252 0
18.3009 -77.3573 0
17.7409 -74.6644 0
16.1182 -77.1252 0
15.3484 -74.4349 0
16.9113 -79.5789 0
16.1182 -77.1252 0
14.6359 -79.2726 0
13.6127 -76.8255 0
16.1182 -77.1252 0
15.3484 -74.4349 0
13.6127 -76.8255 0
12.6102 -74.1426 0
12.3426 -74.3123 0
13.3856 -76.9514 0
15.0317 -74.6063 0
15.7872 -77.2563 0
13.3856 -76.9514 0
14.4695 -79.2912 0
15.7872 -77.2563 0
16.5659 -79.6072 0
15.0317 -74.6063 0
15.7872 -77.2563 0
17.3359 -74.8042 0
17.8079 -77.4633 0
15.7872 -77.2563 0
16.5659 -79.6072 0
17.8079 -77.4633 0
18.2866 -79.8278 0
14.4695 -79.2912 0
15.5926 -81.3141 0
16.5659 -79.6072 0
17.3695 -81.6411 0
15.5926 -81.3141 0
16.7525 -83.0048 0
17.3695 -81.6411 0
18.1978 -83.3423 0
16.5659 -79.6072 0
17.3695 -81.6411 0
18.2866 -79.8278 0
18.781 -81.8757 0
17.3695 -81.6411 0
18.1978 -83.3423 0
18.781 -81.8757 0
19.2963 -83.5954 0
17.3359 -74.8042 0
17.8079 -77.4633 0
19.4149 -74.9047 0
19.6039 -77.5726 0
17.8079 -77.4633 0
18.2866 -79.8278 0
19.6039 -77.5726 0
19.7882 -79.9564 0
19.4149 -74.9047 0
19.6039 -77.5726 0
21.4204 -74.9106 0
21.3404 -77.5883 0
19.6039 -77.5726 0
19.7882 -79.9564 0
21.3404 -77.5883 0
21.2491 -79.9967 0
18.2866 -79.8278 0
18.781 -81.8757 0
19.7882 -79.9564 0
19.9767 -82.0438 0
18.781 -81.8757 0
19.2963 -83.5954 0
19.9767 -82.0438 0
20.1957 -83.8185 0
19.7882 -79.9564 0
19.9767 -82.0438 0
21.2491 -79.9967 0
21.1616 -82.1334 0
19.9767 -82.0438 0
20.1957 -83.8185 0
21.1616 -82.1334 0
21.1042 -83.9914 0
16.7525 -83.0048 0
17.946 -84.3492 0
18.1978 -83.3423 0
19.0493 -84.6964 0
17.946 -84.3492 0
19.1696 -85.3313 0
19.0493 -84.6964 0
19.918 -85.6865 0
18.1978 -83.3423 0
19.0493 -84.6964 0
19.2963 -83.5954 0
19.8359 -84.9743 0
19.0493 -84.6964 0
19.918 -85.6865 0
19.8359 -84.9743 0
20.4107 -85.9994 0
19.1696 -85.3313 0
20.4172 -85.9318 0
19.918 -85.6865 0
20.7962 -86.2923 0
20.4172 -85.9318 0
21.6782 -86.1341 0
20.7962 -86.2923 0
21.6782 -86.4964 0
19.918 -85.6865 0
20.7962 -86.2923 0
20.4107 -85.9994 0
21.0285 -86.6401 0
20.7962 -86.2923 0
21.6782 -86.4964 0
21.0285 -86.6401 0
21.6782 -86.8589 0
19.2963 -83.5954 0
19.8359 -84.9743 0
20.1957 -83.8185 0
20.4648 -85.2713 0
19.8359 -84.9743 0
20.4107 -85.9994 0
20.4648 -85.2713 0
20.8012 -86.3726 0
20.1957 -83.8185 0
20.4648 -85.2713 0
21.1042 -83.9914 0
21.1135 -85.5378 0
20.4648 -85.2713 0
20.8012 -86.3726 0
21.1135 -85.5378 0
21.2132 -86.7362 0
20.4107 -85.9994 0
21.0285 -86.6401 0
20.8012 -86.3726 0
21.2139 -87.0723 0
21.0285 -86.6401 0
21.6782 -86.8589 0
21.2139 -87.0723 0
21.6782 -87.3138 0
20.8012 -86.3726 0
21.2139 -87.0723 0
21.2132 -86.7362 0
21.4118 -87.5088 0
21.2139 -87.0723 0
21.6782 -87.3138 0
21.4118 -87.5088 0
21.6782 -87.7768 0
21.4204 -74.9106 0
21.3404 -77.5883 0
23.4575 -74.8278 0
23.1274 -77.515 0
21.3404 -77.5883 0
21.2491 -79.9967 0
23.1274 -77.515 0
22.7817 -79.9479 0
23.4575 -74.8278 0
23.1274 -77.515 0
25.6156 -74.6644 0
25.0556 -77.3573 0
23.1274 -77.515 0
22.7817 -79.9479 0
25.0556 -77.3573 0
24.4745 -79.8074 0
21.2491 -79.9967 0
21.1616 -82.1334 0
22.7817 -79.9479 0
22.4353 -82.1305 0
21.1616 -82.1334 0
21.1042 -83.9914 0
22.4353 -82.1305 0
22.1112 -84.061 0
22.7817 -79.9479 0
22.4353 -82.1305 0
24.4745 -79.8074 0
23.8829 -82.0209 0
22.4353 -82.1305 0
22.1112 -84.061 0
23.8829 -82.0209 0
23.2951 -84.003 0
25.6156 -74.6644 0
25.0556 -77.3573 0
28.0081 -74.4349 0
27.2383 -77.1252 0
25.0556 -77.3573 0
24.4745 -79.8074 0
27.2383 -77.1252 0
26.4451 -79.5789 0
28.0081 -74.4349 0
27.2383 -77.1252 0
30.7463 -74.1426 0
29.7438 -76.8255 0
27.2383 -77.1252 0
26.4451 -79.5789 0
29.7438 -76.8255 0
28.7206 -79.2726 0
24.4745 -79.8074 0
23.8829 -82.0209 0
26.4451 -79.5789 0
25.63 -81.8019 0
23.8829 -82.0209 0
23.2951 -84.003 0
25.63 -81.8019 0
24.7942 -83.8017 0
26.4451 -79.5789 0
25.63 -81.8019 0
28.7206 -79.2726 0
27.678 -81.4898 0
25.63 -81.8019 0
24.7942 -83.8017 0
27.678 -81.4898 0
26.615 -83.4841 0
21.1042 -83.9914 0
21.1135 -85.5378 0
22.1112 -84.061 0
21.8458 -85.7205 0
21.1135 -85.5378 0
21.2132 -86.7362 0
21.8458 -85.7205 0
21.6792 -87.042 0
22.1112 -84.061 0
21.8458 -85.7205 0
23.2951 -84.003 0
22.7346 -85.75 0
21.8458 -85.7205 0
21.6792 -87.042 0
22.7346 -85.75 0
22.2586 -87.2302 0
21.2132 -86.7362 0
21.4118 -87.5088 0
21.6792 -87.042 0
21.6329 -87.9254 0
21.4118 -87.5088 0
21.6782 -87.7768 0
21.6329 -87.9254 0
21.6782 -88.2365 0
21.6792 -87.042 0
21.6329 -87.9254 0
22.2586 -87.2302 0
21.9221 -88.2924 0
21.6329 -87.9254 0
21.6782 -88.2365 0
21.9221 -88.2924 0
21.6782 -88.681 0
23.2951 -84.003 0
22.7346 -85.75 0
24.7942 -83.8017 0
23.9407 -85.5846 0
22.7346 -85.75 0
22.2586 -87.2302 0
23.9407 -85.5846 0
23.0771 -87.1653 0
24.7942 -83.8017 0
23.9407 -85.5846 0
26.615 -83.4841 0
25.5261 -85.2658 0
23.9407 -85.5846 0
23.0771 -87.1653 0
25.5261 -85.2658 0
24.3912 -86.838 0
22.2586 -87.2302 0
21.9221 -88.2924 0
23.0771 -87.1653 0
22.2955 -88.4799 0
21.9221 -88.2924 0
21.6782 -88.681 0
22.2955 -88.4799 0
21.6782 -89.0822 0
23.0771 -87.1653 0
22.2955 -88.4799 0
24.3912 -86.838 0
23.1277 -88.3304 0
22.2955 -88.4799 0
21.6782 -89.0822 0
23.1277 -88.3304 0
21.6782 -89.0824 0
5.34481 -44.408 0
6.10003 -48.8906 0
9.81921 -44.6223 0
10.3854 -49.1149 0
6.10003 -48.8906 0
6.88803 -53.1785 0
10.3854 -49.1149 0
10.9769 -53.4125 0
9.81921 -44.6223 0
10.3854 -49.1149 0
13.8632 -44.7679 0
14.2452 -49.2681 0
10.3854 -49.1149 0
10.9769 -53.4125 0
14.2452 -49.2681 0
14.6477 -53.5725 0
6.88803 -53.1785 0
7.70919 -57.2638 0
10.9769 -53.4125 0
11.5935 -57.5076 0
7.70919 -57.2638 0
8.56406 -61.1382 0
11.5935 -57.5076 0
12.2343 -61.3915 0
10.9769 -53.4125 0
11.5935 -57.5076 0
14.6477 -53.5725 0
15.0673 -57.673 0
11.5935 -57.5076 0
12.2343 -61.3915 0
15.0673 -57.673 0
15.502 -61.5624 0
13.8632 -44.7679 0
14.2452 -49.2681 0
17.7286 -44.8393 0
17.9236 -49.3469 0
14.2452 -49.2681 0
14.6477 -53.5725 0