# vtk DataFile Version 3.0
#This file was generated by the deal.II library on 2020/9/2 at 8:40:53
ASCII
DATASET UNSTRUCTURED_GRID

POINTS 1536 double
5 0 0
5.125 0 0
5 0.125 0
5.125 0.125 0
5.125 0 0
5.25 0 0
5.125 0.125 0
5.25 0.125 0
5 0.125 0
5.125 0.125 0
5 0.25 0
5.125 0.25 0
5.125 0.125 0
5.25 0.125 0
5.125 0.25 0
5.25 0.25 0
5.25 0 0
5.375 0 0
5.25 0.125 0
5.375 0.125 0
5.375 0 0
5.5 0 0
5.375 0.125 0
5.5 0.125 0
5.25 0.125 0
5.375 0.125 0
5.25 0.25 0
5.375 0.25 0
5.375 0.125 0
5.5 0.125 0
5.375 0.25 0
5.5 0.25 0
5 0.25 0
5.125 0.25 0
5 0.375 0
5.125 0.375 0
5.125 0.25 0
5.25 0.25 0
5.125 0.375 0
5.25 0.375 0
5 0.375 0
5.125 0.375 0
5 0.5 0
5.125 0.5 0
5.125 0.375 0
5.25 0.375 0
5.125 0.5 0
5.25 0.5 0
5.25 0.25 0
5.375 0.25 0
5.25 0.375 0
5.375 0.375 0
5.375 0.25 0
5.5 0.25 0
5.375 0.375 0
5.5 0.375 0
5.25 0.375 0
5.375 0.375 0
5.25 0.5 0
5.375 0.5 0
5.375 0.375 0
5.5 0.375 0
5.375 0.5 0
5.5 0.5 0
5.5 0 0
5.625 0 0
5.5 0.125 0
5.625 0.125 0
5.625 0 0
5.75 0 0
5.625 0.125 0
5.75 0.125 0
5.5 0.125 0
5.625 0.125 0
5.5 0.25 0
5.625 0.25 0
5.625 0.125 0
5.75 0.125 0
5.625 0.25 0
5.75 0.25 0
5.75 0 0
5.875 0 0
5.75 0.125 0
5.875 0.125 0
5.875 0 0
6 0 0
5.875 0.125 0
6 0.125 0
5.75 0.125 0
5.875 0.125 0
5.75 0.25 0
5.875 0.25 0
5.875 0.125 0
6 0.125 0
5.875 0.25 0
6 0.25 0
5.5 0.25 0
5.625 0.25 0
5.5 0.375 0
5.625 0.375 0
5.625 0.25 0
5.75 0.25 0
5.625 0.375 0
5.75 0.375 0
5.5 0.375 0
5.625 0.375 0
5.5 0.5 0
5.625 0.5 0
5.625 0.375 0
5.75 0.375 0
5.625 0.5 0
5.75 0.5 0
5.75 0.25 0
5.875 0.25 0
5.75 0.375 0
5.875 0.375 0
5.875 0.25 0
6 0.25 0
5.875 0.375 0
6 0.375 0
5.75 0.375 0
5.875 0.375 0
5.75 0.5 0
5.875 0.5 0
5.875 0.375 0
6 0.375 0
5.875 0.5 0
6 0.5 0
5 0.5 0
5.125 0.5 0
5 0.625 0
5.125 0.625 0
5.125 0.5 0
5.25 0.5 0
5.125 0.625 0
5.25 0.625 0
5 0.625 0
5.125 0.625 0
5 0.75 0
5.125 0.75 0
5.125 0.625 0
5.25 0.625 0
5.125 0.75 0
5.25 0.75 0
5.25 0.5 0
5.375 0.5 0
5.25 0.625 0
5.375 0.625 0
5.375 0.5 0
5.5 0.5 0
5.375 0.625 0
5.5 0.625 0
5.25 0.625 0
5.375 0.625 0
5.25 0.75 0
5.375 0.75 0
5.375 0.625 0
5.5 0.625 0
5.375 0.75 0
5.5 0.75 0
5 0.75 0
5.125 0.75 0
5 0.875 0
5.125 0.875 0
5.125 0.75 0
5.25 0.75 0
5.125 0.875 0
5.25 0.875 0
5 0.875 0
5.125 0.875 0
5 1 0
5.125 1 0
5.125 0.875 0
5.25 0.875 0
5.125 1 0
5.25 1 0
5.25 0.75 0
5.375 0.75 0
5.25 0.875 0
5.375 0.875 0
5.375 0.75 0
5.5 0.75 0
5.375 0.875 0
5.5 0.875 0
5.25 0.875 0
5.375 0.875 0
5.25 1 0
5.375 1 0
5.375 0.875 0
5.5 0.875 0
5.375 1 0
5.5 1 0
5.5 0.5 0
5.625 0.5 0
5.5 0.625 0
5.625 0.625 0
5.625 0.5 0
5.75 0.5 0
5.625 0.625 0
5.75 0.625 0
5.5 0.625 0
5.625 0.625 0
5.5 0.75 0
5.625 0.75 0
5.625 0.625 0
5.75 0.625 0
5.625 0.75 0
5.75 0.75 0
5.75 0.5 0
5.875 0.5 0
5.75 0.625 0
5.875 0.625 0
5.875 0.5 0
6 0.5 0
5.875 0.625 0
6 0.625 0
5.75 0.625 0
5.875 0.625 0
5.75 0.75 0
5.875 0.75 0
5.875 0.625 0
6 0.625 0
5.875 0.75 0
6 0.75 0
5.5 0.75 0
5.625 0.75 0
5.5 0.875 0
5.625 0.875 0
5.625 0.75 0
5.75 0.75 0
5.625 0.875 0
5.75 0.875 0
5.5 0.875 0
5.625 0.875 0
5.5 1 0
5.625 1 0
5.625 0.875 0
5.75 0.875 0
5.625 1 0
5.75 1 0
5.75 0.75 0
5.875 0.75 0
5.75 0.875 0
5.875 0.875 0
5.875 0.75 0
6 0.75 0
5.875 0.875 0
6 0.875 0
5.75 0.875 0
5.875 0.875 0
5.75 1 0
5.875 1 0
5.875 0.875 0
6 0.875 0
5.875 1 0
6 1 0
4 0 0
4.125 0 0
4 0.125 0
4.125 0.125 0
4.125 0 0
4.25 0 0
4.125 0.125 0
4.25 0.125 0
4 0.125 0
4.125 0.125 0
4 0.25 0
4.125 0.25 0
4.125 0.125 0
4.25 0.125 0
4.125 0.25 0
4.25 0.25 0
4.25 0 0
4.375 0 0
4.25 0.125 0
4.375 0.125 0
4.375 0 0
4.5 0 0
4.375 0.125 0
4.5 0.125 0
4.25 0.125 0
4.375 0.125 0
4.25 0.25 0
4.375 0.25 0
4.375 0.125 0
4.5 0.125 0
4.375 0.25 0
4.5 0.25 0
4 0.25 0
4.125 0.25 0
4 0.375 0
4.125 0.375 0
4.125 0.25 0
4.25 0.25 0
4.125 0.375 0
4.25 0.375 0
4 0.375 0
4.125 0.375 0
4 0.5 0
4.125 0.5 0
4.125 0.375 0
4.25 0.375 0
4.125 0.5 0
4.25 0.5 0
4.25 0.25 0
4.375 0.25 0
4.25 0.375 0
4.375 0.375 0
4.375 0.25 0
4.5 0.25 0
4.375 0.375 0
4.5 0.375 0
4.25 0.375 0
4.375 0.375 0
4.25 0.5 0
4.375 0.5 0
4.375 0.375 0
4.5 0.375 0
4.375 0.5 0
4.5 0.5 0
4.5 0 0
4.625 0 0
4.5 0.125 0
4.625 0.125 0
4.625 0 0
4.75 0 0
4.625 0.125 0
4.75 0.125 0
4.5 0.125 0
4.625 0.125 0
4.5 0.25 0
4.625 0.25 0
4.625 0.125 0
4.75 0.125 0
4.625 0.25 0
4.75 0.25 0
4.75 0 0
4.875 0 0
4.75 0.125 0
4.875 0.125 0
4.875 0 0
5 0 0
4.875 0.125 0
5 0.125 0
4.75 0.125 0
4.875 0.125 0
4.75 0.25 0
4.875 0.25 0
4.875 0.125 0
5 0.125 0
4.875 0.25 0
5 0.25 0
4.5 0.25 0
4.625 0.25 0
4.5 0.375 0
4.625 0.375 0
4.625 0.25 0
4.75 0.25 0
4.625 0.375 0
4.75 0.375 0
4.5 0.375 0
4.625 0.375 0
4.5 0.5 0
4.625 0.5 0
4.625 0.375 0
4.75 0.375 0
4.625 0.5 0
4.75 0.5 0
4.75 0.25 0
4.875 0.25 0
4.75 0.375 0
4.875 0.375 0
4.875 0.25 0
5 0.25 0
4.875 0.375 0
5 0.375 0
4.75 0.375 0
4.875 0.375 0
4.75 0.5 0
4.875 0.5 0
4.875 0.375 0
5 0.375 0
4.875 0.5 0
5 0.5 0
4 0.5 0
4.125 0.5 0
4 0.625 0
4.125 0.625 0
4.125 0.5 0
4.25 0.5 0
4.125 0.625 0
4.25 0.625 0
4 0.625 0
4.125 0.625 0
4 0.75 0
4.125 0.75 0
4.125 0.625 0
4.25 0.625 0
4.125 0.75 0
4.25 0.75 0
4.25 0.5 0
4.375 0.5 0
4.25 0.625 0
4.375 0.625 0
4.375 0.5 0
4.5 0.5 0
4.375 0.625 0
4.5 0.625 0
4.25 0.625 0
4.375 0.625 0
4.25 0.75 0
4.375 0.75 0
4.375 0.625 0
4.5 0.625 0
4.375 0.75 0
4.5 0.75 0
4 0.75 0
4.125 0.75 0
4 0.875 0
4.125 0.875 0
4.125 0.75 0
4.25 0.75 0
4.125 0.875 0
4.25 0.875 0
4 0.875 0
4.125 0.875 0
4 1 0
4.125 1 0
4.125 0.875 0
4.25 0.875 0
4.125 1 0
4.25 1 0
4.25 0.75 0
4.375 0.75 0
4.25 0.875 0
4.375 0.875 0
4.375 0.75 0
4.5 0.75 0
4.375 0.875 0
4.5 0.875 0
4.25 0.875 0
4.375 0.875 0
4.25 1 0
4.375 1 0
4.375 0.875 0
4.5 0.875 0
4.375 1 0
4.5 1 0
4.5 0.5 0
4.625 0.5 0
4.5 0.625 0
4.625 0.625 0
4.625 0.5 0
4.75 0.5 0
4.625 0.625 0
4.75 0.625 0
4.5 0.625 0
4.625 0.625 0
4.5 0.75 0
4.625 0.75 0
4.625 0.625 0
4.75 0.625 0
4.625 0.75 0
4.75 0.75 0
4.75 0.5 0
4.875 0.5 0
4.75 0.625 0
4.875 0.625 0
4.875 0.5 0
5 0.5 0
4.875 0.625 0
5 0.625 0
4.75 0.625 0
4.875 0.625 0
4.75 0.75 0
4.875 0.75 0
4.875 0.625 0
5 0.625 0
4.875 0.75 0
5 0.75 0
4.5 0.75 0
4.625 0.75 0
4.5 0.875 0
4.625 0.875 0
4.625 0.75 0
4.75 0.75 0
4.625 0.875 0
4.75 0.875 0
4.5 0.875 0
4.625 0.875 0
4.5 1 0
4.625 1 0
4.625 0.875 0
4.75 0.875 0
4.625 1 0
4.75 1 0
4.75 0.75 0
4.875 0.75 0
4.75 0.875 0
4.875 0.875 0
4.875 0.75 0
5 0.75 0
4.875 0.875 0
5 0.875 0
4.75 0.875 0
4.875 0.875 0
4.75 1 0
4.875 1 0
4.875 0.875 0
5 0.875 0
4.875 1 0
5 1 0
3 0 0
3.125 0 0
3 0.125 0
3.125 0.125 0
3.125 0 0
3.25 0 0
3.125 0.125 0
3.25 0.125 0
3 0.125 0
3.125 0.125 0
3 0.25 0
3.125 0.25 0
3.125 0.125 0
3.25 0.125 0
3.125 0.25 0
3.25 0.25 0
3.25 0 0
3.375 0 0
3.25 0.125 0
3.375 0.125 0
3.375 0 0
3.5 0 0
3.375 0.125 0
3.5 0.125 0
3.25 0.125 0
3.375 0.125 0
3.25 0.25 0
3.375 0.25 0
3.375 0.125 0
3.5 0.125 0
3.375 0.25 0
3.5 0.25 0
3 0.25 0
3.125 0.25 0
3 0.375 0
3.125 0.375 0
3.125 0.25 0
3.25 0.25 0
3.125 0.375 0
3.25 0.375 0
3 0.375 0
3.125 0.375 0
3 0.5 0
3.125 0.5 0
3.125 0.375 0
3.25 0.375 0
3.125 0.5 0
3.25 0.5 0
3.25 0.25 0
3.375 0.25 0
3.25 0.375 0
3.375 0.375 0
3.375 0.25 0
3.5 0.25 0
3.375 0.375 0
3.5 0.375 0
3.25 0.375 0
3.375 0.375 0
3.25 0.5 0
3.375 0.5 0
3.375 0.375 0
3.5 0.375 0
3.375 0.5 0
3.5 0.5 0
3.5 0 0
3.625 0 0
3.5 0.125 0
3.625 0.125 0
3.625 0 0
3.75 0 0
3.625 0.125 0
3.75 0.125 0
3.5 0.125 0
3.625 0.125 0
3.5 0.25 0
3.625 0.25 0
3.625 0.125 0
3.75 0.125 0
3.625 0.25 0
3.75 0.25 0
3.75 0 0
3.875 0 0
3.75 0.125 0
3.875 0.125 0
3.875 0 0
4 0 0
3.875 0.125 0
4 0.125 0
3.75 0.125 0
3.875 0.125 0
3.75 0.25 0
3.875 0.25 0
3.875 0.125 0
4 0.125 0
3.875 0.25 0
4 0.25 0
3.5 0.25 0
3.625 0.25 0
3.5 0.375 0
3.625 0.375 0
3.625 0.25 0
3.75 0.25 0
3.625 0.375 0
3.75 0.375 0
3.5 0.375 0
3.625 0.375 0
3.5 0.5 0
3.625 0.5 0
3.625 0.375 0
3.75 0.375 0
3.625 0.5 0
3.75 0.5 0
3.75 0.25 0
3.875 0.25 0
3.75 0.375 0
3.875 0.375 0
3.875 0.25 0
4 0.25 0
3.875 0.375 0
4 0.375 0
3.75 0.375 0
3.875 0.375 0
3.75 0.5 0
3.875 0.5 0
3.875 0.375 0
4 0.375 0
3.875 0.5 0
4 0.5 0
3 0.5 0
3.125 0.5 0
3 0.625 0
3.125 0.625 0
3.125 0.5 0
3.25 0.5 0
3.125 0.625 0
3.25 0.625 0
3 0.625 0
3.125 0.625 0
3 0.75 0
3.125 0.75 0
3.125 0.625 0
3.25 0.625 0
3.125 0.75 0
3.25 0.75 0
3.25 0.5 0
3.375 0.5 0
3.25 0.625 0
3.375 0.625 0
3.375 0.5 0
3.5 0.5 0
3.375 0.625 0
3.5 0.625 0
3.25 0.625 0
3.375 0.625 0
3.25 0.75 0
3.375 0.75 0
3.375 0.625 0
3.5 0.625 0
3.375 0.75 0
3.5 0.75 0
3 0.75 0
3.125 0.75 0
3 0.875 0
3.125 0.875 0
3.125 0.75 0
3.25 0.75 0
3.125 0.875 0
3.25 0.875 0
3 0.875 0
3.125 0.875 0
3 1 0
3.125 1 0
3.125 0.875 0
3.25 0.875 0
3.125 1 0
3.25 1 0
3.25 0.75 0
3.375 0.75 0
3.25 0.875 0
3.375 0.875 0
3.375 0.75 0
3.5 0.75 0
3.375 0.875 0
3.5 0.875 0
3.25 0.875 0
3.375 0.875 0
3.25 1 0
3.375 1 0
3.375 0.875 0
3.5 0.875 0
3.375 1 0
3.5 1 0
3.5 0.5 0
3.625 0.5 0
3.5 0.625 0
3.625 0.625 0
3.625 0.5 0
3.75 0.5 0
3.625 0.625 0
3.75 0.625 0
3.5 0.625 0
3.625 0.625 0
3.5 0.75 0
3.625 0.75 0
3.625 0.625 0
3.75 0.625 0
3.625 0.75 0
3.75 0.75 0
3.75 0.5 0
3.875 0.5 0
3.75 0.625 0
3.875 0.625 0
3.875 0.5 0
4 0.5 0
3.875 0.625 0
4 0.625 0
3.75 0.625 0
3.875 0.625 0
3.75 0.75 0
3.875 0.75 0
3.875 0.625 0
4 0.625 0
3.875 0.75 0
4 0.75 0
3.5 0.75 0
3.625 0.75 0
3.5 0.875 0
3.625 0.875 0
3.625 0.75 0
3.75 0.75 0
3.625 0.875 0
3.75 0.875 0
3.5 0.875 0
3.625 0.875 0
3.5 1 0
3.625 1 0
3.625 0.875 0
3.75 0.875 0
3.625 1 0
3.75 1 0
3.75 0.75 0
3.875 0.75 0
3.75 0.875 0
3.875 0.875 0
3.875 0.75 0
4 0.75 0
3.875 0.875 0
4 0.875 0
3.75 0.875 0
3.875 0.875 0
3.75 1 0
3.875 1 0
3.875 0.875 0
4 0.875 0
3.875 1 0
4 1 0
2 0 0
2.125 0 0
2 0.125 0
2.125 0.125 0
2.125 0 0
2.25 0 0
2.125 0.125 0
2.25 0.125 0
2 0.125 0
2.125 0.125 0
2 0.25 0
2.125 0.25 0
2.125 0.125 0
2.25 0.125 0
2.125 0.25 0
2.25 0.25 0
2.25 0 0
2.375 0 0
2.25 0.125 0
2.375 0.125 0
2.375 0 0
2.5 0 0
2.375 0.125 0
2.5 0.125 0
2.25 0.125 0
2.375 0.125 0
2.25 0.25 0
2.375 0.25 0
2.375 0.125 0
2.5 0.125 0
2.375 0.25 0
2.5 0.25 0
2 0.25 0
2.125 0.25 0
2 0.375 0
2.125 0.375 0
2.125 0.25 0
2.25 0.25 0
2.125 0.375 0
2.25 0.375 0
2 0.375 0
2.125 0.375 0
2 0.5 0
2.125 0.5 0
2.125 0.375 0
2.25 0.375 0
2.125 0.5 0
2.25 0.5 0
2.25 0.25 0
2.375 0.25 0
2.25 0.375 0
2.375 0.375 0
2.375 0.25 0
[...]
POINT_DATA 1536
VECTORS displacements double
38.7083 -45.3608 0
39.4449 -40.5736 0
34.1139 -45.5812 0
34.6729 -40.7812 0
39.4449 -40.5736 0
40.1607 -35.6033 0
34.6729 -40.7812 0
35.1972 -35.8075 0
34.1139 -45.5812 0
34.6729 -40.7812 0
30.0378 -45.7387 0
30.4005 -40.924 0
34.6729 -40.7812 0
35.1972 -35.8075 0
30.4005 -40.924 0
30.7521 -35.9342 0
40.1607 -35.6033 0
40.8397 -30.4559 0
35.1972 -35.8075 0
35.7101 -30.6421 0
40.8397 -30.4559 0
41.5185 -25.1337 0
35.7101 -30.6421 0
36.1823 -25.3264 0
35.1972 -35.8075 0
35.7101 -30.6421 0
30.7521 -35.9342 0
31.071 -30.7622 0
35.7101 -30.6421 0
36.1823 -25.3264 0
31.071 -30.7622 0
31.3617 -25.4134 0
30.0378 -45.7387 0
30.4005 -40.924 0
26.1245 -45.8129 0
26.3176 -41.0039 0
30.4005 -40.924 0
30.7521 -35.9342 0
26.3176 -41.0039 0
26.466 -35.9886 0
26.1245 -45.8129 0
26.3176 -41.0039 0
22.2901 -45.824 0
22.289 -40.9882 0
26.3176 -41.0039 0
26.466 -35.9886 0
22.289 -40.9882 0
22.2839 -35.9827 0
30.7521 -35.9342 0
31.071 -30.7622 0
26.466 -35.9886 0
26.6095 -30.7961 0
31.071 -30.7622 0
31.3617 -25.4134 0
26.6095 -30.7961 0
26.7175 -25.4289 0
26.466 -35.9886 0
26.6095 -30.7961 0
22.2839 -35.9827 0
22.2236 -30.7599 0
26.6095 -30.7961 0
26.7175 -25.4289 0
22.2236 -30.7599 0
22.1793 -25.3775 0
41.5185 -25.1337 0
42.1734 -19.6373 0
36.1823 -25.3264 0
36.6465 -19.7959 0
42.1734 -19.6373 0
42.9171 -13.886 0
36.6465 -19.7959 0
37.0092 -14.1021 0
36.1823 -25.3264 0
36.6465 -19.7959 0
31.3617 -25.4134 0
31.6139 -19.8731 0
36.6465 -19.7959 0
37.0092 -14.1021 0
31.6139 -19.8731 0
31.7951 -14.1122 0
42.9171 -13.886 0
43.7404 -7.85059 0
37.0092 -14.1021 0
37.1967 -7.7683 0
43.7404 -7.85059 0
44.1751 0 0
37.1967 -7.7683 0
37.3926 -1.41486 0
37.0092 -14.1021 0
37.1967 -7.7683 0
31.7951 -14.1122 0
31.7996 -8.05282 0
37.1967 -7.7683 0
37.3926 -1.41486 0
31.7996 -8.05282 0
31.9373 -2.35752 0
31.3617 -25.4134 0
31.6139 -19.8731 0
26.7175 -25.4289 0
26.7946 -19.8857 0
31.6139 -19.8731 0
31.7951 -14.1122 0
26.7946 -19.8857 0
26.7485 -14.1829 0
26.7175 -25.4289 0
26.7946 -19.8857 0
22.1793 -25.3775 0
22.0675 -19.9105 0
26.7946 -19.8857 0
26.7485 -14.1829 0
22.0675 -19.9105 0
21.9436 -14.3691 0
31.7951 -14.1122 0
31.7996 -8.05282 0
26.7485 -14.1829 0
26.7462 -8.49582 0
31.7996 -8.05282 0
31.9373 -2.35752 0
26.7462 -8.49582 0
26.8209 -2.96547 0
26.7485 -14.1829 0
26.7462 -8.49582 0
21.9436 -14.3691 0
21.8905 -8.83541 0
26.7462 -8.49582 0
26.8209 -2.96547 0
21.8905 -8.83541 0
21.9633 -3.55393 0
22.2901 -45.824 0
22.289 -40.9882 0
18.454 -45.7504 0
18.2625 -40.9224 0
22.289 -40.9882 0
22.2839 -35.9827 0
18.2625 -40.9224 0
18.0585 -35.8735 0
18.454 -45.7504 0
18.2625 -40.9224 0
14.518 -45.5997 0
14.1475 -40.7723 0
18.2625 -40.9224 0
18.0585 -35.8735 0
14.1475 -40.7723 0
13.769 -35.7603 0
22.2839 -35.9827 0
22.2236 -30.7599 0
18.0585 -35.8735 0
17.8699 -30.6767 0
22.2236 -30.7599 0
22.1793 -25.3775 0
17.8699 -30.6767 0
17.6374 -25.3603 0
18.0585 -35.8735 0
17.8699 -30.6767 0
13.769 -35.7603 0
13.3762 -30.6011 0
17.8699 -30.6767 0
17.6374 -25.3603 0
13.3762 -30.6011 0
13.0268 -25.3297 0
14.518 -45.5997 0
14.1475 -40.7723 0
10.3654 -45.4071 0
9.78465 -40.5978 0
14.1475 -40.7723 0
13.769 -35.7603 0
9.78465 -40.5978 0
9.23601 -35.6284 0
10.3654 -45.4071 0
9.78465 -40.5978 0
5.8337 -45.1862 0
5.16745 -40.3925 0
9.78465 -40.5978 0
9.23601 -35.6284 0
5.16745 -40.3925 0
4.61351 -35.4998 0
13.769 -35.7603 0
13.3762 -30.6011 0
9.23601 -35.6284 0
8.78525 -30.5048 0
13.3762 -30.6011 0
13.0268 -25.3297 0
8.78525 -30.5048 0
8.43756 -25.3197 0
9.23601 -35.6284 0
8.78525 -30.5048 0
4.61351 -35.4998 0
4.08147 -30.4298 0
8.78525 -30.5048 0
8.43756 -25.3197 0
4.08147 -30.4298 0
3.54143 -25.2111 0
22.1793 -25.3775 0
22.0675 -19.9105 0
17.6374 -25.3603 0
17.3999 -19.9606 0
22.0675 -19.9105 0
21.9436 -14.3691 0
17.3999 -19.9606 0
17.2543 -14.5342 0
17.6374 -25.3603 0
17.3999 -19.9606 0
13.0268 -25.3297 0
12.7943 -20.016 0
17.3999 -19.9606 0
17.2543 -14.5342 0
12.7943 -20.016 0
12.6089 -14.6492 0
21.9436 -14.3691 0
21.8905 -8.83541 0
17.2543 -14.5342 0
17.1883 -9.12865 0
21.8905 -8.83541 0
21.9633 -3.55393 0
17.1883 -9.12865 0
17.2547 -4.04237 0
17.2543 -14.5342 0
17.1883 -9.12865 0
12.6089 -14.6492 0
12.5304 -9.3464 0
17.1883 -9.12865 0
17.2547 -4.04237 0
12.5304 -9.3464 0
12.5563 -4.33897 0
13.0268 -25.3297 0
12.7943 -20.016 0
8.43756 -25.3197 0
8.11127 -20.0135 0
12.7943 -20.016 0
12.6089 -14.6492 0
8.11127 -20.0135 0
7.8745 -14.6814 0
8.43756 -25.3197 0
8.11127 -20.0135 0
3.54143 -25.2111 0
3.11753 -19.9295 0
8.11127 -20.0135 0
7.8745 -14.6814 0
3.11753 -19.9295 0
2.85701 -14.6459 0
12.6089 -14.6492 0
12.5304 -9.3464 0
7.8745 -14.6814 0
7.75796 -9.452 0
12.5304 -9.3464 0
12.5563 -4.33897 0
7.75796 -9.452 0
7.73811 -4.43517 0
7.8745 -14.6814 0
7.75796 -9.452 0
2.85701 -14.6459 0
2.76965 -9.4691 0
7.75796 -9.452 0
7.73811 -4.43517 0
2.76965 -9.4691 0
2.76382 -4.44155 0
31.5997 -76.0868 0
32.6157 -73.0794 0
28.8353 -76.3835 0
29.573 -73.3656 0
32.6157 -73.0794 0
33.5884 -69.8056 0
29.573 -73.3656 0
30.2909 -70.0806 0
28.8353 -76.3835 0
29.573 -73.3656 0
26.5057 -76.579 0
26.9614 -73.5548 0
29.573 -73.3656 0
30.2909 -70.0806 0
26.9614 -73.5548 0
27.422 -70.2613 0
33.5884 -69.8056 0
34.5239 -66.2871 0
30.2909 -70.0806 0
30.9852 -66.5515 0
34.5239 -66.2871 0
35.4281 -62.5346 0
30.9852 -66.5515 0
31.6534 -62.7916 0
30.2909 -70.0806 0
30.9852 -66.5515 0
27.422 -70.2613 0
27.8851 -66.7215 0
30.9852 -66.5515 0
31.6534 -62.7916 0
27.8851 -66.7215 0
28.3437 -62.9541 0
26.5057 -76.579 0
26.9614 -73.5548 0
24.3996 -76.6708 0
24.5768 -73.6418 0
26.9614 -73.5548 0
27.422 -70.2613 0
24.5768 -73.6418 0
24.7738 -70.3455 0
24.3996 -76.6708 0
24.5768 -73.6418 0
22.3584 -76.6589 0
22.2731 -73.6267 0
24.5768 -73.6418 0
24.7738 -70.3455 0
22.2731 -73.6267 0
22.2227 -70.3339 0
27.422 -70.2613 0
27.8851 -66.7215 0
24.7738 -70.3455 0
24.9909 -66.8037 0
27.8851 -66.7215 0
28.3437 -62.9541 0
24.9909 -66.8037 0
25.222 -63.0344 0
24.7738 -70.3455 0
24.9909 -66.8037 0
22.2227 -70.3339 0
22.2017 -66.7986 0
24.9909 -66.8037 0
25.222 -63.0344 0
22.2017 -66.7986 0
22.2021 -63.0333 0
35.4281 -62.5346 0
36.2975 -58.5543 0
31.6534 -62.7916 0
32.3028 -58.8024 0
36.2975 -58.5543 0
37.1321 -54.3597 0
32.3028 -58.8024 0
32.9321 -54.5979 0
31.6534 -62.7916 0
32.3028 -58.8024 0
28.3437 -62.9541 0
28.7902 -58.9698 0
32.3028 -58.8024 0
32.9321 -54.5979 0
28.7902 -58.9698 0
29.2231 -54.7642 0
37.1321 -54.3597 0
37.9362 -49.9608 0
32.9321 -54.5979 0
33.535 -50.1901 0
37.9362 -49.9608 0
38.7083 -45.3608 0
33.535 -50.1901 0
34.1139 -45.5812 0
32.9321 -54.5979 0
33.535 -50.1901 0
29.2231 -54.7642 0
29.6403 -50.349 0
33.535 -50.1901 0
34.1139 -45.5812 0
29.6403 -50.349 0
30.0378 -45.7387 0
28.3437 -62.9541 0
28.7902 -58.9698 0
25.222 -63.0344 0
25.4602 -59.0484 0
28.7902 -58.9698 0
29.2231 -54.7642 0
25.4602 -59.0484 0
25.6956 -54.8517 0
25.222 -63.0344 0
25.4602 -59.0484 0
22.2021 -63.0333 0
22.218 -59.0489 0
25.4602 -59.0484 0
25.6956 -54.8517 0
22.218 -59.0489 0
22.2457 -54.8521 0
29.2231 -54.7642 0
29.6403 -50.349 0
25.6956 -54.8517 0
25.9182 -50.4384 0
29.6403 -50.349 0
30.0378 -45.7387 0
25.9182 -50.4384 0
26.1245 -45.8129 0
25.6956 -54.8517 0
25.9182 -50.4384 0
22.2457 -54.8521 0
22.2754 -50.4451 0
25.9182 -50.4384 0
26.1245 -45.8129 0
22.2754 -50.4451 0
22.2901 -45.824 0
22.3584 -76.6589 0
22.2731 -73.6267 0
20.2824 -76.5494 0
19.9616 -73.5162 0
22.2731 -73.6267 0
22.2227 -70.3339 0
19.9616 -73.5162 0
19.6793 -70.2367 0
20.2824 -76.5494 0
19.9616 -73.5162 0
18.1079 -76.3529 0
17.5687 -73.3334 0
19.9616 -73.5162 0
19.6793 -70.2367 0
17.5687 -73.3334 0
17.06 -70.0709 0
22.2227 -70.3339 0
22.2017 -66.7986 0
19.6793 -70.2367 0
19.4285 -66.7155 0
22.2017 -66.7986 0
22.2021 -63.0333 0
19.4285 -66.7155 0
19.2021 -62.9605 0
19.6793 -70.2367 0
19.4285 -66.7155 0
17.06 -70.0709 0
16.5801 -66.5663 0
19.4285 -66.7155 0
19.2021 -62.9605 0
16.5801 -66.5663 0
16.126 -62.8228 0
18.1079 -76.3529 0
17.5687 -73.3334 0
15.7209 -76.1098 0
14.9614 -73.1005 0
17.5687 -73.3334 0
17.06 -70.0709 0
14.9614 -73.1005 0
14.2291 -69.8509 0
15.7209 -76.1098 0
14.9614 -73.1005 0
12.9 -75.8134 0
11.91 -72.8122 0
14.9614 -73.1005 0
14.2291 -69.8509 0
11.91 -72.8122 0
10.9437 -69.5713 0
17.06 -70.0709 0
16.5801 -66.5663 0
14.2291 -69.8509 0
13.5238 -66.3587 0
16.5801 -66.5663 0
16.126 -62.8228 0
13.5238 -66.3587 0
12.8449 -62.6256 0
14.2291 -69.8509 0
13.5238 -66.3587 0
10.9437 -69.5713 0
10.0042 -66.0885 0
13.5238 -66.3587 0
12.8449 -62.6256 0
10.0042 -66.0885 0
9.09462 -62.365 0
22.2021 -63.0333 0
22.218 -59.0489 0
19.2021 -62.9605 0
18.9949 -58.9789 0
22.218 -59.0489 0
22.2457 -54.8521 0
18.9949 -58.9789 0
18.803 -54.7792 0
19.2021 -62.9605 0
18.9949 -58.9789 0
16.126 -62.8228 0
15.6948 -58.8466 0
18.9949 -58.9789 0
18.803 -54.7792 0
15.6948 -58.8466 0
15.285 -54.6446 0
22.2457 -54.8521 0
22.2754 -50.4451 0
18.803 -54.7792 0
18.626 -50.3692 0
22.2754 -50.4451 0
22.2901 -45.824 0
18.626 -50.3692 0
18.454 -45.7504 0
18.803 -54.7792 0
18.626 -50.3692 0
15.285 -54.6446 0
14.8937 -50.2254 0
18.626 -50.3692 0
18.454 -45.7504 0
14.8937 -50.2254 0
14.518 -45.5997 0
16.126 -62.8228 0
15.6948 -58.8466 0
12.8449 -62.6256 0
12.1918 -58.6558 0
15.6948 -58.8466 0
15.285 -54.6446 0
12.1918 -58.6558 0
11.5629 -54.4557 0
12.8449 -62.6256 0
12.1918 -58.6558 0
9.09462 -62.365 0
8.21779 -58.4049 0
12.1918 -58.6558 0
11.5629 -54.4557 0
8.21779 -58.4049 0
7.37738 -54.2146 0
15.285 -54.6446 0
14.8937 -50.2254 0
11.5629 -54.4557 0
10.9561 -50.0349 0
14.8937 -50.2254 0
14.518 -45.5997 0
10.9561 -50.0349 0
10.3654 -45.4071 0
11.5629 -54.4557 0
10.9561 -50.0349 0
7.37738 -54.2146 0
6.57876 -49.8033 0
10.9561 -50.0349 0
10.3654 -45.4071 0
6.57876 -49.8033 0
5.8337 -45.1862 0
22.0876 -88.0203 0
23.3666 -87.8203 0
22.0876 -88.3888 0
22.9909 -88.1871 0
23.3666 -87.8203 0
24.6326 -87.2267 0
22.9909 -88.1871 0
23.8911 -87.5887 0
22.0876 -88.3888 0
22.9909 -88.1871 0
22.0876 -88.8456 0
22.8159 -88.6197 0
22.9909 -88.1871 0
23.8911 -87.5887 0
22.8159 -88.6197 0
23.4912 -87.9571 0
24.6326 -87.2267 0
25.8755 -86.256 0
23.8911 -87.5887 0
24.7825 -86.6102 0
25.8755 -86.256 0
27.0911 -84.9235 0
24.7825 -86.6102 0
25.6528 -85.2676 0
23.8911 -87.5887 0
24.7825 -86.6102 0
23.4912 -87.9571 0
24.0864 -86.9186 0
24.7825 -86.6102 0
25.6528 -85.2676 0
24.0864 -86.9186 0
24.6173 -85.5384 0
22.0876 -88.8456 0
22.8159 -88.6197 0
22.0876 -89.373 0
22.6255 -89.127 0
22.8159 -88.6197 0
23.4912 -87.9571 0
22.6255 -89.127 0
23.099 -88.4137 0
22.0876 -89.373 0
22.6255 -89.127 0
22.0876 -89.8925 0
22.4185 -89.6274 0
22.6255 -89.127 0
23.099 -88.4137 0
22.4185 -89.6274 0
22.6695 -88.8472 0
23.4912 -87.9571 0
24.0864 -86.9186 0
23.099 -88.4137 0
23.4619 -87.2805 0
24.0864 -86.9186 0
24.6173 -85.5384 0
23.4619 -87.2805 0
23.7357 -85.8087 0
23.099 -88.4137 0
23.4619 -87.2805 0
22.6695 -88.8472 0
22.792 -87.6083 0
23.4619 -87.2805 0
23.7357 -85.8087 0
22.792 -87.6083 0
22.7969 -86.008 0
27.0911 -84.9235 0
28.2779 -83.2322 0
25.6528 -85.2676 0
26.4903 -83.5661 0
28.2779 -83.2322 0
29.427 -81.1868 0
26.4903 -83.5661 0
27.3006 -81.5075 0
25.6528 -85.2676 0
26.4903 -83.5661 0
24.6173 -85.5384 0
25.1232 -83.8098 0
26.4903 -83.5661 0
27.3006 -81.5075 0
25.1232 -83.8098 0
25.5983 -81.7341 0
29.427 -81.1868 0
30.5364 -78.7994 0
27.3006 -81.5075 0
28.0788 -79.1092 0
30.5364 -78.7994 0
31.5997 -76.0868 0
28.0788 -79.1092 0
28.8353 -76.3835 0
27.3006 -81.5075 0
28.0788 -79.1092 0
25.5983 -81.7341 0
26.0488 -79.3121 0
28.0788 -79.1092 0
28.8353 -76.3835 0
26.0488 -79.3121 0
26.5057 -76.579 0
24.6173 -85.5384 0
25.1232 -83.8098 0
23.7357 -85.8087 0
23.9355 -83.9951 0
25.1232 -83.8098 0
25.5983 -81.7341 0
23.9355 -83.9951 0
24.088 -81.8588 0
23.7357 -85.8087 0
23.9355 -83.9951 0
22.7969 -86.008 0
22.7208 -84.0904 0
23.9355 -83.9951 0
24.088 -81.8588 0
22.7208 -84.0904 0
22.6 -81.8903 0
25.5983 -81.7341 0
26.0488 -79.3121 0
24.088 -81.8588 0
24.241 -79.4109 0
26.0488 -79.3121 0
26.5057 -76.579 0
24.241 -79.4109 0
24.3996 -76.6708 0
24.088 -81.8588 0
24.241 -79.4109 0
22.6 -81.8903 0
22.4719 -79.4161 0
24.241 -79.4109 0
24.3996 -76.6708 0
22.4719 -79.4161 0
22.3584 -76.6589 0
22.0876 -89.8925 0
22.4185 -89.6274 0
22.0876 -90.4112 0
22.1854 -90.1077 0
22.4185 -89.6274 0
22.6695 -88.8472 0
22.1854 -90.1077 0
22.1822 -89.2201 0
22.0876 -90.4112 0
22.1854 -90.1077 0
22.0876 -90.9099 0
21.8701 -90.5586 0
22.1854 -90.1077 0
22.1822 -89.2201 0
21.8701 -90.5586 0
21.5486 -89.4238 0
22.6695 -88.8472 0
22.792 -87.6083 0
22.1822 -89.2201 0
22.0174 -87.8184 0
22.792 -87.6083 0
22.7969 -86.008 0
22.0174 -87.8184 0
21.7503 -86.0901 0
22.1822 -89.2201 0
22.0174 -87.8184 0
21.5486 -89.4238 0
21.086 -87.8685 0
22.0174 -87.8184 0
21.7503 -86.0901 0
21.086 -87.8685 0
20.5184 -86.0374 0
22.0876 -90.9099 0
21.8701 -90.5586 0
22.0876 -91.4024 0
21.4696 -90.7545 0
21.8701 -90.5586 0
21.5486 -89.4238 0
21.4696 -90.7545 0
20.7002 -89.3794 0
22.0876 -91.4024 0
21.4696 -90.7545 0
22.0876 -91.3827 0
20.6069 -90.6046 0
21.4696 -90.7545 0
20.7002 -89.3794 0
20.6069 -90.6046 0
19.3241 -89.0543 0
21.5486 -89.4238 0
21.086 -87.8685 0
20.7002 -89.3794 0
19.847 -87.7256 0
21.086 -87.8685 0
20.5184 -86.0374 0
19.847 -87.7256 0
18.9898 -85.8496 0
20.7002 -89.3794 0
19.847 -87.7256 0
19.3241 -89.0543 0
18.1705 -87.4043 0
19.847 -87.7256 0
18.9898 -85.8496 0
18.1705 -87.4043 0
17.0682 -85.5287 0
22.7969 -86.008 0
22.7208 -84.0904 0
21.7503 -86.0901 0
21.4009 -84.0864 0
22.7208 -84.0904 0
22.6 -81.8903 0
21.4009 -84.0864 0
21.0224 -81.8334 0
21.7503 -86.0901 0
21.4009 -84.0864 0
20.5184 -86.0374 0
19.9131 -83.9756 0
21.4009 -84.0864 0
21.0224 -81.8334 0
19.9131 -83.9756 0
19.291 -81.6787 0
22.6 -81.8903 0
22.4719 -79.4161 0
21.0224 -81.8334 0
20.6415 -79.3247 0
22.4719 -79.4161 0
22.3584 -76.6589 0
20.6415 -79.3247 0
20.2824 -76.5494 0
21.0224 -81.8334 0
20.6415 -79.3247 0
19.291 -81.6787 0
18.6815 -79.1338 0
20.6415 -79.3247 0
20.2824 -76.5494 0
18.6815 -79.1338 0
18.1079 -76.3529 0
20.5184 -86.0374 0
19.9131 -83.9756 0
18.9898 -85.8496 0
18.1443 -83.7507 0
19.9131 -83.9756 0
19.291 -81.6787 0
18.1443 -83.7507 0
17.3156 -81.4299 0
18.9898 -85.8496 0
18.1443 -83.7507 0
17.0682 -85.5287 0
15.9943 -83.4349 0
18.1443 -83.7507 0
17.3156 -81.4299 0
15.9943 -83.4349 0
14.9424 -81.1197 0
19.291 -81.6787 0
18.6815 -79.1338 0
17.3156 -81.4299 0
16.5066 -78.8842 0
18.6815 -79.1338 0
18.1079 -76.3529 0
16.5066 -78.8842 0
15.7209 -76.1098 0
17.3156 -81.4299 0
16.5066 -78.8842 0
14.9424 -81.1197 0
13.9111 -78.5805 0
16.5066 -78.8842 0
15.7209 -76.1098 0
13.9111 -78.5805 0
12.9 -75.8134 0
12.5755 -76.0868 0
13.6387 -78.7994 0
15.3398 -76.3835 0
16.0963 -79.1092 0
13.6387 -78.7994 0
14.7481 -81.1868 0
16.0963 -79.1092 0
16.8745 -81.5075 0
15.3398 -76.3835 0
16.0963 -79.1092 0
17.6694 -76.579 0
18.1263 -79.3121 0
16.0963 -79.1092 0
16.8745 -81.5075 0
18.1263 -79.3121 0
18.5768 -81.7341 0
14.7481 -81.1868 0
15.8972 -83.2322 0
16.8745 -81.5075 0
17.6848 -83.5661 0
15.8972 -83.2322 0
17.084 -84.9235 0
17.6848 -83.5661 0
18.5223 -85.2676 0
16.8745 -81.5075 0
17.6848 -83.5661 0
18.5768 -81.7341 0
19.052 -83.8098 0
17.6848 -83.5661 0
18.5223 -85.2676 0
19.052 -83.8098 0
19.5579 -85.5384 0
17.6694 -76.579 0
18.1263 -79.3121 0
19.7755 -76.6708 0
19.9342 -79.4109 0
18.1263 -79.3121 0
18.5768 -81.7341 0
19.9342 -79.4109 0
20.0872 -81.8588 0
19.7755 -76.6708 0
19.9342 -79.4109 0
21.8167 -76.6589 0
21.7032 -79.4161 0
19.9342 -79.4109 0
20.0872 -81.8588 0
21.7032 -79.4161 0
21.5751 -81.8903 0
18.5768 -81.7341 0
19.052 -83.8098 0
20.0872 -81.8588 0
20.2397 -83.9951 0
19.052 -83.8098 0
19.5579 -85.5384 0
20.2397 -83.9951 0
20.4394 -85.8087 0
20.0872 -81.8588 0
20.2397 -83.9951 0
21.5751 -81.8903 0
21.4543 -84.0904 0
20.2397 -83.9951 0
20.4394 -85.8087 0
21.4543 -84.0904 0
21.3782 -86.008 0
17.084 -84.9235 0
18.2997 -86.256 0
18.5223 -85.2676 0
19.3926 -86.6102 0
18.2997 -86.256 0
19.5425 -87.2267 0
19.3926 -86.6102 0
20.284 -87.5887 0
18.5223 -85.2676 0
19.3926 -86.6102 0
19.5579 -85.5384 0
20.0887 -86.9186 0
19.3926 -86.6102 0
20.284 -87.5887 0
20.0887 -86.9186 0
20.684 -87.9571 0
19.5425 -87.2267 0
20.8085 -87.8203 0
20.284 -87.5887 0
21.1842 -88.1871 0
20.8085 -87.8203 0
22.0876 -88.0203 0
21.1842 -88.1871 0
22.0876 -88.3888 0
20.284 -87.5887 0
21.1842 -88.1871 0
20.684 -87.9571 0
21.3592 -88.6197 0
21.1842 -88.1871 0
22.0876 -88.3888 0
21.3592 -88.6197 0
22.0876 -88.8456 0
19.5579 -85.5384 0
20.0887 -86.9186 0
20.4394 -85.8087 0
20.7132 -87.2805 0
20.0887 -86.9186 0
20.684 -87.9571 0
20.7132 -87.2805 0
21.0762 -88.4137 0
20.4394 -85.8087 0
20.7132 -87.2805 0
21.3782 -86.008 0
21.3831 -87.6083 0
20.7132 -87.2805 0
21.0762 -88.4137 0
21.3831 -87.6083 0
21.5057 -88.8472 0
20.684 -87.9571 0
21.3592 -88.6197 0
21.0762 -88.4137 0
21.5496 -89.127 0
21.3592 -88.6197 0
22.0876 -88.8456 0
21.5496 -89.127 0
22.0876 -89.373 0
21.0762 -88.4137 0
21.5496 -89.127 0
21.5057 -88.8472 0
21.7566 -89.6274 0
21.5496 -89.127 0
22.0876 -89.373 0
21.7566 -89.6274 0
22.0876 -89.8925 0
21.8167 -76.6589 0
21.7032 -79.4161 0
23.8927 -76.5494 0
23.5336 -79.3247 0
21.7032 -79.4161 0
21.5751 -81.8903 0
23.5336 -79.3247 0
23.1527 -81.8334 0
23.8927 -76.5494 0
23.5336 -79.3247 0
26.0672 -76.3529 0
25.4936 -79.1338 0
23.5336 -79.3247 0
23.1527 -81.8334 0
25.4936 -79.1338 0
24.8841 -81.6787 0
21.5751 -81.8903 0
21.4543 -84.0904 0
23.1527 -81.8334 0
22.7743 -84.0864 0
21.4543 -84.0904 0
21.3782 -86.008 0
22.7743 -84.0864 0
22.4248 -86.0901 0
23.1527 -81.8334 0
22.7743 -84.0864 0
24.8841 -81.6787 0
24.262 -83.9756 0
22.7743 -84.0864 0
22.4248 -86.0901 0
24.262 -83.9756 0
23.6568 -86.0374 0
26.0672 -76.3529 0
25.4936 -79.1338 0
28.4543 -76.1098 0
27.6685 -78.8842 0
25.4936 -79.1338 0
24.8841 -81.6787 0
27.6685 -78.8842 0
26.8595 -81.4299 0
28.4543 -76.1098 0
27.6685 -78.8842 0
31.2752 -75.8134 0
30.264 -78.5805 0
27.6685 -78.8842 0
26.8595 -81.4299 0
30.264 -78.5805 0
29.2327 -81.1197 0
24.8841 -81.6787 0
24.262 -83.9756 0
26.8595 -81.4299 0
26.0308 -83.7507 0
24.262 -83.9756 0
23.6568 -86.0374 0
26.0308 -83.7507 0
25.1853 -85.8496 0
26.8595 -81.4299 0
26.0308 -83.7507 0
29.2327 -81.1197 0
28.1809 -83.4349 0
26.0308 -83.7507 0
25.1853 -85.8496 0
28.1809 -83.4349 0
27.107 -85.5287 0
21.3782 -86.008 0
21.3831 -87.6083 0
22.4248 -86.0901 0
22.1577 -87.8184 0
21.3831 -87.6083 0
21.5057 -88.8472 0
22.1577 -87.8184 0
21.993 -89.2201 0
22.4248 -86.0901 0
22.1577 -87.8184 0
23.6568 -86.0374 0
23.0892 -87.8685 0
22.1577 -87.8184 0
21.993 -89.2201 0
23.0892 -87.8685 0
22.6266 -89.4238 0
21.5057 -88.8472 0
21.7566 -89.6274 0
21.993 -89.2201 0
21.9897 -90.1077 0
21.7566 -89.6274 0
22.0876 -89.8925 0
21.9897 -90.1077 0
22.0876 -90.4112 0
21.993 -89.2201 0
21.9897 -90.1077 0
22.6266 -89.4238 0
22.305 -90.5586 0
21.9897 -90.1077 0
22.0876 -90.4112 0
22.305 -90.5586 0
22.0876 -90.9099 0
23.6568 -86.0374 0
23.0892 -87.8685 0
25.1853 -85.8496 0
24.3281 -87.7256 0
23.0892 -87.8685 0
22.6266 -89.4238 0
24.3281 -87.7256 0
23.4749 -89.3794 0
25.1853 -85.8496 0
24.3281 -87.7256 0
27.107 -85.5287 0
26.0046 -87.4043 0
24.3281 -87.7256 0
23.4749 -89.3794 0
26.0046 -87.4043 0
24.851 -89.0543 0
22.6266 -89.4238 0
22.305 -90.5586 0
23.4749 -89.3794 0
22.7055 -90.7545 0
22.305 -90.5586 0
22.0876 -90.9099 0
22.7055 -90.7545 0
22.0876 -91.4024 0
23.4749 -89.3794 0
22.7055 -90.7545 0
24.851 -89.0543 0
23.5682 -90.6046 0
22.7055 -90.7545 0
22.0876 -91.4024 0
23.5682 -90.6046 0
22.0876 -91.3827 0
5.46685 -45.3608 0
6.23888 -49.9608 0
10.0612 -45.5812 0
10.6401 -50.1901 0
6.23888 -49.9608 0
7.04306 -54.3597 0
10.6401 -50.1901 0
11.243 -54.5979 0
10.0612 -45.5812 0
10.6401 -50.1901 0
14.1373 -45.7387 0
14.5349 -50.349 0
10.6401 -50.1901 0
11.243 -54.5979 0
14.5349 -50.349 0
14.952 -54.7642 0
7.04306 -54.3597 0
7.8776 -58.5543 0
11.243 -54.5979 0
11.8723 -58.8024 0
7.8776 -58.5543 0
8.74698 -62.5346 0
11.8723 -58.8024 0
12.5218 -62.7916 0
11.243 -54.5979 0
11.8723 -58.8024 0
14.952 -54.7642 0
15.3849 -58.9698 0
11.8723 -58.8024 0
12.5218 -62.7916 0
15.3849 -58.9698 0
15.8315 -62.9541 0
14.1373 -45.7387 0
14.5349 -50.349 0
18.0506 -45.8129 0
18.2569 -50.4384 0
14.5349 -50.349 0
14.952 -54.7642 0
18.2569 -50.4384 0