# vtk DataFile Version 3.0
#This file was generated by the deal.II library on 2020/9/2 at 8:39:11
ASCII
DATASET UNSTRUCTURED_GRID

POINTS 1536 double
5 0 0
5.125 0 0
5 0.125 0
5.125 0.125 0
5.125 0 0
5.25 0 0
5.125 0.125 0
5.25 0.125 0
5 0.125 0
5.125 0.125 0
5 0.25 0
5.125 0.25 0
5.125 0.125 0
5.25 0.125 0
5.125 0.25 0
5.25 0.25 0
5.25 0 0
5.375 0 0
5.25 0.125 0
5.375 0.125 0
5.375 0 0
5.5 0 0
5.375 0.125 0
5.5 0.125 0
5.25 0.125 0
5.375 0.125 0
5.25 0.25 0
5.375 0.25 0
5.375 0.125 0
5.5 0.125 0
5.375 0.25 0
5.5 0.25 0
5 0.25 0
5.125 0.25 0
5 0.375 0
5.125 0.375 0
5.125 0.25 0
5.25 0.25 0
5.125 0.375 0
5.25 0.375 0
5 0.375 0
5.125 0.375 0
5 0.5 0
5.125 0.5 0
5.125 0.375 0
5.25 0.375 0
5.125 0.5 0
5.25 0.5 0
5.25 0.25 0
5.375 0.25 0
5.25 0.375 0
5.375 0.375 0
5.375 0.25 0
5.5 0.25 0
5.375 0.375 0
5.5 0.375 0
5.25 0.375 0
5.375 0.375 0
5.25 0.5 0
5.375 0.5 0
5.375 0.375 0
5.5 0.375 0
5.375 0.5 0
5.5 0.5 0
5.5 0 0
5.625 0 0
5.5 0.125 0
5.625 0.125 0
5.625 0 0
5.75 0 0
5.625 0.125 0
5.75 0.125 0
5.5 0.125 0
5.625 0.125 0
5.5 0.25 0
5.625 0.25 0
5.625 0.125 0
5.75 0.125 0
5.625 0.25 0
5.75 0.25 0
5.75 0 0
5.875 0 0
5.75 0.125 0
5.875 0.125 0
5.875 0 0
6 0 0
5.875 0.125 0
6 0.125 0
5.75 0.125 0
5.875 0.125 0
5.75 0.25 0
5.875 0.25 0
5.875 0.125 0
6 0.125 0
5.875 0.25 0
6 0.25 0
5.5 0.25 0
5.625 0.25 0
5.5 0.375 0
5.625 0.375 0
5.625 0.25 0
5.75 0.25 0
5.625 0.375 0
5.75 0.375 0
5.5 0.375 0
5.625 0.375 0
5.5 0.5 0
5.625 0.5 0
5.625 0.375 0
5.75 0.375 0
5.625 0.5 0
5.75 0.5 0
5.75 0.25 0
5.875 0.25 0
5.75 0.375 0
5.875 0.375 0
5.875 0.25 0
6 0.25 0
5.875 0.375 0
6 0.375 0
5.75 0.375 0
5.875 0.375 0
5.75 0.5 0
5.875 0.5 0
5.875 0.375 0
6 0.375 0
5.875 0.5 0
6 0.5 0
5 0.5 0
5.125 0.5 0
5 0.625 0
5.125 0.625 0
5.125 0.5 0
5.25 0.5 0
5.125 0.625 0
5.25 0.625 0
5 0.625 0
5.125 0.625 0
5 0.75 0
5.125 0.75 0
5.125 0.625 0
5.25 0.625 0
5.125 0.75 0
5.25 0.75 0
5.25 0.5 0
5.375 0.5 0
5.25 0.625 0
5.375 0.625 0
5.375 0.5 0
5.5 0.5 0
5.375 0.625 0
5.5 0.625 0
5.25 0.625 0
5.375 0.625 0
5.25 0.75 0
5.375 0.75 0
5.375 0.625 0
5.5 0.625 0
5.375 0.75 0
5.5 0.75 0
5 0.75 0
5.125 0.75 0
5 0.875 0
5.125 0.875 0
5.125 0.75 0
5.25 0.75 0
5.125 0.875 0
5.25 0.875 0
5 0.875 0
5.125 0.875 0
5 1 0
5.125 1 0
5.125 0.875 0
5.25 0.875 0
5.125 1 0
5.25 1 0
5.25 0.75 0
5.375 0.75 0
5.25 0.875 0
5.375 0.875 0
5.375 0.75 0
5.5 0.75 0
5.375 0.875 0
5.5 0.875 0
5.25 0.875 0
5.375 0.875 0
5.25 1 0
5.375 1 0
5.375 0.875 0
5.5 0.875 0
5.375 1 0
5.5 1 0
5.5 0.5 0
5.625 0.5 0
5.5 0.625 0
5.625 0.625 0
5.625 0.5 0
5.75 0.5 0
5.625 0.625 0
5.75 0.625 0
5.5 0.625 0
5.625 0.625 0
5.5 0.75 0
5.625 0.75 0
5.625 0.625 0
5.75 0.625 0
5.625 0.75 0
5.75 0.75 0
5.75 0.5 0
5.875 0.5 0
5.75 0.625 0
5.875 0.625 0
5.875 0.5 0
6 0.5 0
5.875 0.625 0
6 0.625 0
5.75 0.625 0
5.875 0.625 0
5.75 0.75 0
5.875 0.75 0
5.875 0.625 0
6 0.625 0
5.875 0.75 0
6 0.75 0
5.5 0.75 0
5.625 0.75 0
5.5 0.875 0
5.625 0.875 0
5.625 0.75 0
5.75 0.75 0
5.625 0.875 0
5.75 0.875 0
5.5 0.875 0
5.625 0.875 0
5.5 1 0
5.625 1 0
5.625 0.875 0
5.75 0.875 0
5.625 1 0
5.75 1 0
5.75 0.75 0
5.875 0.75 0
5.75 0.875 0
5.875 0.875 0
5.875 0.75 0
6 0.75 0
5.875 0.875 0
6 0.875 0
5.75 0.875 0
5.875 0.875 0
5.75 1 0
5.875 1 0
5.875 0.875 0
6 0.875 0
5.875 1 0
6 1 0
4 0 0
4.125 0 0
4 0.125 0
4.125 0.125 0
4.125 0 0
4.25 0 0
4.125 0.125 0
4.25 0.125 0
4 0.125 0
4.125 0.125 0
4 0.25 0
4.125 0.25 0
4.125 0.125 0
4.25 0.125 0
4.125 0.25 0
4.25 0.25 0
4.25 0 0
4.375 0 0
4.25 0.125 0
4.375 0.125 0
4.375 0 0
4.5 0 0
4.375 0.125 0
4.5 0.125 0
4.25 0.125 0
4.375 0.125 0
4.25 0.25 0
4.375 0.25 0
4.375 0.125 0
4.5 0.125 0
4.375 0.25 0
4.5 0.25 0
4 0.25 0
4.125 0.25 0
4 0.375 0
4.125 0.375 0
4.125 0.25 0
4.25 0.25 0
4.125 0.375 0
4.25 0.375 0
4 0.375 0
4.125 0.375 0
4 0.5 0
4.125 0.5 0
4.125 0.375 0
4.25 0.375 0
4.125 0.5 0
4.25 0.5 0
4.25 0.25 0
4.375 0.25 0
4.25 0.375 0
4.375 0.375 0
4.375 0.25 0
4.5 0.25 0
4.375 0.375 0
4.5 0.375 0
4.25 0.375 0
4.375 0.375 0
4.25 0.5 0
4.375 0.5 0
4.375 0.375 0
4.5 0.375 0
4.375 0.5 0
4.5 0.5 0
4.5 0 0
4.625 0 0
4.5 0.125 0
4.625 0.125 0
4.625 0 0
4.75 0 0
4.625 0.125 0
4.75 0.125 0
4.5 0.125 0
4.625 0.125 0
4.5 0.25 0
4.625 0.25 0
4.625 0.125 0
4.75 0.125 0
4.625 0.25 0
4.75 0.25 0
4.75 0 0
4.875 0 0
4.75 0.125 0
4.875 0.125 0
4.875 0 0
5 0 0
4.875 0.125 0
5 0.125 0
4.75 0.125 0
4.875 0.125 0
4.75 0.25 0
4.875 0.25 0
4.875 0.125 0
5 0.125 0
4.875 0.25 0
5 0.25 0
4.5 0.25 0
4.625 0.25 0
4.5 0.375 0
4.625 0.375 0
4.625 0.25 0
4.75 0.25 0
4.625 0.375 0
4.75 0.375 0
4.5 0.375 0
4.625 0.375 0
4.5 0.5 0
4.625 0.5 0
4.625 0.375 0
4.75 0.375 0
4.625 0.5 0
4.75 0.5 0
4.75 0.25 0
4.875 0.25 0
4.75 0.375 0
4.875 0.375 0
4.875 0.25 0
5 0.25 0
4.875 0.375 0
5 0.375 0
4.75 0.375 0
4.875 0.375 0
4.75 0.5 0
4.875 0.5 0
4.875 0.375 0
5 0.375 0
4.875 0.5 0
5 0.5 0
4 0.5 0
4.125 0.5 0
4 0.625 0
4.125 0.625 0
4.125 0.5 0
4.25 0.5 0
4.125 0.625 0
4.25 0.625 0
4 0.625 0
4.125 0.625 0
4 0.75 0
4.125 0.75 0
4.125 0.625 0
4.25 0.625 0
4.125 0.75 0
4.25 0.75 0
4.25 0.5 0
4.375 0.5 0
4.25 0.625 0
4.375 0.625 0
4.375 0.5 0
4.5 0.5 0
4.375 0.625 0
4.5 0.625 0
4.25 0.625 0
4.375 0.625 0
4.25 0.75 0
4.375 0.75 0
4.375 0.625 0
4.5 0.625 0
4.375 0.75 0
4.5 0.75 0
4 0.75 0
4.125 0.75 0
4 0.875 0
4.125 0.875 0
4.125 0.75 0
4.25 0.75 0
4.125 0.875 0
4.25 0.875 0
4 0.875 0
4.125 0.875 0
4 1 0
4.125 1 0
4.125 0.875 0
4.25 0.875 0
4.125 1 0
4.25 1 0
4.25 0.75 0
4.375 0.75 0
4.25 0.875 0
4.375 0.875 0
4.375 0.75 0
4.5 0.75 0
4.375 0.875 0
4.5 0.875 0
4.25 0.875 0
4.375 0.875 0
4.25 1 0
4.375 1 0
4.375 0.875 0
4.5 0.875 0
4.375 1 0
4.5 1 0
4.5 0.5 0
4.625 0.5 0
4.5 0.625 0
4.625 0.625 0
4.625 0.5 0
4.75 0.5 0
4.625 0.625 0
4.75 0.625 0
4.5 0.625 0
4.625 0.625 0
4.5 0.75 0
4.625 0.75 0
4.625 0.625 0
4.75 0.625 0
4.625 0.75 0
4.75 0.75 0
4.75 0.5 0
4.875 0.5 0
4.75 0.625 0
4.875 0.625 0
4.875 0.5 0
5 0.5 0
4.875 0.625 0
5 0.625 0
4.75 0.625 0
4.875 0.625 0
4.75 0.75 0
4.875 0.75 0
4.875 0.625 0
5 0.625 0
4.875 0.75 0
5 0.75 0
4.5 0.75 0
4.625 0.75 0
4.5 0.875 0
4.625 0.875 0
4.625 0.75 0
4.75 0.75 0
4.625 0.875 0
4.75 0.875 0
4.5 0.875 0
4.625 0.875 0
4.5 1 0
4.625 1 0
4.625 0.875 0
4.75 0.875 0
4.625 1 0
4.75 1 0
4.75 0.75 0
4.875 0.75 0
4.75 0.875 0
4.875 0.875 0
4.875 0.75 0
5 0.75 0
4.875 0.875 0
5 0.875 0
4.75 0.875 0
4.875 0.875 0
4.75 1 0
4.875 1 0
4.875 0.875 0
5 0.875 0
4.875 1 0
5 1 0
3 0 0
3.125 0 0
3 0.125 0
3.125 0.125 0
3.125 0 0
3.25 0 0
3.125 0.125 0
3.25 0.125 0
3 0.125 0
3.125 0.125 0
3 0.25 0
3.125 0.25 0
3.125 0.125 0
3.25 0.125 0
3.125 0.25 0
3.25 0.25 0
3.25 0 0
3.375 0 0
3.25 0.125 0
3.375 0.125 0
3.375 0 0
3.5 0 0
3.375 0.125 0
3.5 0.125 0
3.25 0.125 0
3.375 0.125 0
3.25 0.25 0
3.375 0.25 0
3.375 0.125 0
3.5 0.125 0
3.375 0.25 0
3.5 0.25 0
3 0.25 0
3.125 0.25 0
3 0.375 0
3.125 0.375 0
3.125 0.25 0
3.25 0.25 0
3.125 0.375 0
3.25 0.375 0
3 0.375 0
3.125 0.375 0
3 0.5 0
3.125 0.5 0
3.125 0.375 0
3.25 0.375 0
3.125 0.5 0
3.25 0.5 0
3.25 0.25 0
3.375 0.25 0
3.25 0.375 0
3.375 0.375 0
3.375 0.25 0
3.5 0.25 0
3.375 0.375 0
3.5 0.375 0
3.25 0.375 0
3.375 0.375 0
3.25 0.5 0
3.375 0.5 0
3.375 0.375 0
3.5 0.375 0
3.375 0.5 0
3.5 0.5 0
3.5 0 0
3.625 0 0
3.5 0.125 0
3.625 0.125 0
3.625 0 0
3.75 0 0
3.625 0.125 0
3.75 0.125 0
3.5 0.125 0
3.625 0.125 0
3.5 0.25 0
3.625 0.25 0
3.625 0.125 0
3.75 0.125 0
3.625 0.25 0
3.75 0.25 0
3.75 0 0
3.875 0 0
3.75 0.125 0
3.875 0.125 0
3.875 0 0
4 0 0
3.875 0.125 0
4 0.125 0
3.75 0.125 0
3.875 0.125 0
3.75 0.25 0
3.875 0.25 0
3.875 0.125 0
4 0.125 0
3.875 0.25 0
4 0.25 0
3.5 0.25 0
3.625 0.25 0
3.5 0.375 0
3.625 0.375 0
3.625 0.25 0
3.75 0.25 0
3.625 0.375 0
3.75 0.375 0
3.5 0.375 0
3.625 0.375 0
3.5 0.5 0
3.625 0.5 0
3.625 0.375 0
3.75 0.375 0
3.625 0.5 0
3.75 0.5 0
3.75 0.25 0
3.875 0.25 0
3.75 0.375 0
3.875 0.375 0
3.875 0.25 0
4 0.25 0
3.875 0.375 0
4 0.375 0
3.75 0.375 0
3.875 0.375 0
3.75 0.5 0
3.875 0.5 0
3.875 0.375 0
4 0.375 0
3.875 0.5 0
4 0.5 0
3 0.5 0
3.125 0.5 0
3 0.625 0
3.125 0.625 0
3.125 0.5 0
3.25 0.5 0
3.125 0.625 0
3.25 0.625 0
3 0.625 0
3.125 0.625 0
3 0.75 0
3.125 0.75 0
3.125 0.625 0
3.25 0.625 0
3.125 0.75 0
3.25 0.75 0
3.25 0.5 0
3.375 0.5 0
3.25 0.625 0
3.375 0.625 0
3.375 0.5 0
3.5 0.5 0
3.375 0.625 0
3.5 0.625 0
3.25 0.625 0
3.375 0.625 0
3.25 0.75 0
3.375 0.75 0
3.375 0.625 0
3.5 0.625 0
3.375 0.75 0
3.5 0.75 0
3 0.75 0
3.125 0.75 0
3 0.875 0
3.125 0.875 0
3.125 0.75 0
3.25 0.75 0
3.125 0.875 0
3.25 0.875 0
3 0.875 0
3.125 0.875 0
3 1 0
3.125 1 0
3.125 0.875 0
3.25 0.875 0
3.125 1 0
3.25 1 0
3.25 0.75 0
3.375 0.75 0
3.25 0.875 0
3.375 0.875 0
3.375 0.75 0
3.5 0.75 0
3.375 0.875 0
3.5 0.875 0
3.25 0.875 0
3.375 0.875 0
3.25 1 0
3.375 1 0
3.375 0.875 0
3.5 0.875 0
3.375 1 0
3.5 1 0
3.5 0.5 0
3.625 0.5 0
3.5 0.625 0
3.625 0.625 0
3.625 0.5 0
3.75 0.5 0
3.625 0.625 0
3.75 0.625 0
3.5 0.625 0
3.625 0.625 0
3.5 0.75 0
3.625 0.75 0
3.625 0.625 0
3.75 0.625 0
3.625 0.75 0
3.75 0.75 0
3.75 0.5 0
3.875 0.5 0
3.75 0.625 0
3.875 0.625 0
3.875 0.5 0
4 0.5 0
3.875 0.625 0
4 0.625 0
3.75 0.625 0
3.875 0.625 0
3.75 0.75 0
3.875 0.75 0
3.875 0.625 0
4 0.625 0
3.875 0.75 0
4 0.75 0
3.5 0.75 0
3.625 0.75 0
3.5 0.875 0
3.625 0.875 0
3.625 0.75 0
3.75 0.75 0
3.625 0.875 0
3.75 0.875 0
3.5 0.875 0
3.625 0.875 0
3.5 1 0
3.625 1 0
3.625 0.875 0
3.75 0.875 0
3.625 1 0
3.75 1 0
3.75 0.75 0
3.875 0.75 0
3.75 0.875 0
3.875 0.875 0
3.875 0.75 0
4 0.75 0
3.875 0.875 0
4 0.875 0
3.75 0.875 0
3.875 0.875 0
3.75 1 0
3.875 1 0
3.875 0.875 0
4 0.875 0
3.875 1 0
4 1 0
2 0 0
2.125 0 0
2 0.125 0
2.125 0.125 0
2.125 0 0
2.25 0 0
2.125 0.125 0
2.25 0.125 0
2 0.125 0
2.125 0.125 0
2 0.25 0
2.125 0.25 0
2.125 0.125 0
2.25 0.125 0
2.125 0.25 0
2.25 0.25 0
2.25 0 0
2.375 0 0
2.25 0.125 0
2.375 0.125 0
2.375 0 0
2.5 0 0
2.375 0.125 0
2.5 0.125 0
2.25 0.125 0
2.375 0.125 0
2.25 0.25 0
2.375 0.25 0
2.375 0.125 0
2.5 0.125 0
2.375 0.25 0
2.5 0.25 0
2 0.25 0
2.125 0.25 0
2 0.375 0
2.125 0.375 0
2.125 0.25 0
2.25 0.25 0
2.125 0.375 0
2.25 0.375 0
2 0.375 0
2.125 0.375 0
2 0.5 0
2.125 0.5 0
2.125 0.375 0
2.25 0.375 0
2.125 0.5 0
2.25 0.5 0
2.25 0.25 0
2.375 0.25 0
2.25 0.375 0
2.375 0.375 0
2.375 0.25 0
[...]
POINT_DATA 1536
VECTORS displacements double
30.1394 -33.8761 0
30.6517 -30.2887 0
26.6896 -34.0309 0
27.073 -30.4302 0
30.6517 -30.2887 0
31.1223 -26.5818 0
27.073 -30.4302 0
27.4219 -26.71 0
26.6896 -34.0309 0
27.073 -30.4302 0
23.3714 -34.1372 0
23.6206 -30.5244 0
27.073 -30.4302 0
27.4219 -26.71 0
23.6206 -30.5244 0
23.8405 -26.7904 0
31.1223 -26.5818 0
31.5556 -22.7649 0
27.4219 -26.71 0
27.7354 -22.8804 0
31.5556 -22.7649 0
31.9623 -18.8415 0
27.7354 -22.8804 0
28.0121 -18.9461 0
27.4219 -26.71 0
27.7354 -22.8804 0
23.8405 -26.7904 0
24.0258 -22.9448 0
27.7354 -22.8804 0
28.0121 -18.9461 0
24.0258 -22.9448 0
24.1677 -18.991 0
23.3714 -34.1372 0
23.6206 -30.5244 0
20.1386 -34.1942 0
20.2549 -30.5702 0
23.6206 -30.5244 0
23.8405 -26.7904 0
20.2549 -30.5702 0
20.3499 -26.8226 0
20.1386 -34.1942 0
20.2549 -30.5702 0
16.9489 -34.2045 0
16.9363 -30.5722 0
20.2549 -30.5702 0
20.3499 -26.8226 0
16.9363 -30.5722 0
16.9145 -26.8146 0
23.8405 -26.7904 0
24.0258 -22.9448 0
20.3499 -26.8226 0
20.4175 -22.9611 0
24.0258 -22.9448 0
24.1677 -18.991 0
20.4175 -22.9611 0
20.4507 -18.9915 0
20.3499 -26.8226 0
20.4175 -22.9611 0
16.9145 -26.8146 0
16.8801 -22.9434 0
20.4175 -22.9611 0
20.4507 -18.9915 0
16.8801 -22.9434 0
16.8312 -18.9706 0
31.9623 -18.8415 0
32.3637 -14.8026 0
28.0121 -18.9461 0
28.2455 -14.8941 0
32.3637 -14.8026 0
32.8055 -10.5791 0
28.2455 -14.8941 0
28.4118 -10.6839 0
28.0121 -18.9461 0
28.2455 -14.8941 0
24.1677 -18.991 0
24.2524 -14.919 0
28.2455 -14.8941 0
28.4118 -10.6839 0
24.2524 -14.919 0
24.2585 -10.6798 0
32.8055 -10.5791 0
33.3437 -6.09011 0
28.4118 -10.6839 0
28.41 -6.05888 0
33.3437 -6.09011 0
33.75 0 0
28.41 -6.05888 0
28.5353 -1.17551 0
28.4118 -10.6839 0
28.41 -6.05888 0
24.2585 -10.6798 0
24.2495 -6.24761 0
28.41 -6.05888 0
28.5353 -1.17551 0
24.2495 -6.24761 0
24.3751 -1.98239 0
24.1677 -18.991 0
24.2524 -14.919 0
20.4507 -18.9915 0
20.4441 -14.9124 0
24.2524 -14.919 0
24.2585 -10.6798 0
20.4441 -14.9124 0
20.4151 -10.7273 0
20.4507 -18.9915 0
20.4441 -14.9124 0
16.8312 -18.9706 0
16.7749 -14.913 0
20.4441 -14.9124 0
20.4151 -10.7273 0
16.7749 -14.913 0
16.7357 -10.809 0
24.2585 -10.6798 0
24.2495 -6.24761 0
20.4151 -10.7273 0
20.4281 -6.51722 0
24.2495 -6.24761 0
24.3751 -1.98239 0
20.4281 -6.51722 0
20.5311 -2.52986 0
20.4151 -10.7273 0
20.4281 -6.51722 0
16.7357 -10.809 0
16.7477 -6.7497 0
20.4281 -6.51722 0
20.5311 -2.52986 0
16.7477 -6.7497 0
16.8192 -2.89651 0
16.9489 -34.2045 0
16.9363 -30.5722 0
13.7632 -34.1719 0
13.6267 -30.5363 0
16.9363 -30.5722 0
16.9145 -26.8146 0
13.6267 -30.5363 0
13.4969 -26.7753 0
13.7632 -34.1719 0
13.6267 -30.5363 0
10.5419 -34.0992 0
10.2858 -30.4668 0
13.6267 -30.5363 0
13.4969 -26.7753 0
10.2858 -30.4668 0
10.0546 -26.7101 0
16.9145 -26.8146 0
16.8801 -22.9434 0
13.4969 -26.7753 0
13.374 -22.9036 0
16.8801 -22.9434 0
16.8312 -18.9706 0
13.374 -22.9036 0
13.2614 -18.9411 0
13.4969 -26.7753 0
13.374 -22.9036 0
10.0546 -26.7101 0
9.85177 -22.8467 0
13.374 -22.9036 0
13.2614 -18.9411 0
9.85177 -22.8467 0
9.68285 -18.9021 0
10.5419 -34.0992 0
10.2858 -30.4668 0
7.23706 -33.9871 0
6.86339 -30.3647 0
10.2858 -30.4668 0
10.0546 -26.7101 0
6.86339 -30.3647 0
6.53313 -26.6198 0
7.23706 -33.9871 0
6.86339 -30.3647 0
3.78477 -33.8339 0
3.28968 -30.2277 0
6.86339 -30.3647 0
6.53313 -26.6198 0
3.28968 -30.2277 0
2.85639 -26.5016 0
10.0546 -26.7101 0
9.85177 -22.8467 0
6.53313 -26.6198 0
6.25266 -22.7718 0
9.85177 -22.8467 0
9.68285 -18.9021 0
6.25266 -22.7718 0
6.02918 -18.8483 0
6.53313 -26.6198 0
6.25266 -22.7718 0
2.85639 -26.5016 0
2.49564 -22.676 0
6.25266 -22.7718 0
6.02918 -18.8483 0
2.49564 -22.676 0
2.21956 -18.7788 0
16.8312 -18.9706 0
16.7749 -14.913 0
13.2614 -18.9411 0
13.1693 -14.9181 0
16.7749 -14.913 0
16.7357 -10.809 0
13.1693 -14.9181 0
13.1152 -10.8836 0
13.2614 -18.9411 0
13.1693 -14.9181 0
9.68285 -18.9021 0
9.5559 -14.9128 0
13.1693 -14.9181 0
13.1152 -10.8836 0
9.5559 -14.9128 0
9.47936 -10.9288 0
16.7357 -10.809 0
16.7477 -6.7497 0
13.1152 -10.8836 0
13.1127 -6.9142 0
16.7477 -6.7497 0
16.8192 -2.89651 0
13.1127 -6.9142 0
13.1512 -3.11563 0
13.1152 -10.8836 0
13.1127 -6.9142 0
9.47936 -10.9288 0
9.45568 -7.00995 0
13.1127 -6.9142 0
13.1512 -3.11563 0
9.45568 -7.00995 0
9.46601 -3.21649 0
9.68285 -18.9021 0
9.5559 -14.9128 0
6.02918 -18.8483 0
5.86854 -14.8877 0
9.5559 -14.9128 0
9.47936 -10.9288 0
5.86854 -14.8877 0
5.7715 -10.9387 0
6.02918 -18.8483 0
5.86854 -14.8877 0
2.21956 -18.7788 0
2.03736 -14.8472 0
5.86854 -14.8877 0
5.7715 -10.9387 0
2.03736 -14.8472 0
1.94676 -10.9263 0
9.47936 -10.9288 0
9.45568 -7.00995 0
5.7715 -10.9387 0
5.7302 -7.04956 0
9.45568 -7.00995 0
9.46601 -3.21649 0
5.7302 -7.04956 0
5.72303 -3.24108 0
5.7715 -10.9387 0
5.7302 -7.04956 0
1.94676 -10.9263 0
1.92361 -7.05638 0
5.7302 -7.04956 0
5.72303 -3.24108 0
1.92361 -7.05638 0
1.92377 -3.24099 0
24.5943 -56.9459 0
25.4163 -54.7046 0
22.5288 -57.1898 0
23.1435 -54.9387 0
25.4163 -54.7046 0
26.2036 -52.2606 0
23.1435 -54.9387 0
23.7333 -52.4848 0
22.5288 -57.1898 0
23.1435 -54.9387 0
20.6049 -57.3612 0
21.0115 -55.1038 0
23.1435 -54.9387 0
23.7333 -52.4848 0
21.0115 -55.1038 0
21.4031 -52.6433 0
26.2036 -52.2606 0
26.9554 -49.6234 0
23.7333 -52.4848 0
24.2974 -49.8372 0
26.9554 -49.6234 0
27.6708 -46.8022 0
24.2974 -49.8372 0
24.8346 -47.0053 0
23.7333 -52.4848 0
24.2974 -49.8372 0
21.4031 -52.6433 0
21.7788 -49.9888 0
24.2974 -49.8372 0
24.8346 -47.0053 0
21.7788 -49.9888 0
22.1372 -47.1494 0
20.6049 -57.3612 0
21.0115 -55.1038 0
18.7747 -57.4597 0
18.9726 -55.1993 0
21.0115 -55.1038 0
21.4031 -52.6433 0
18.9726 -55.1993 0
19.1649 -52.7357 0
18.7747 -57.4597 0
18.9726 -55.1993 0
16.9846 -57.4865 0
16.9752 -55.2259 0
18.9726 -55.1993 0
19.1649 -52.7357 0
16.9752 -55.2259 0
16.9689 -52.7625 0
21.4031 -52.6433 0
21.7788 -49.9888 0
19.1649 -52.7357 0
19.3508 -50.0777 0
21.7788 -49.9888 0
22.1372 -47.1494 0
19.3508 -50.0777 0
19.529 -47.2341 0
19.1649 -52.7357 0
19.3508 -50.0777 0
16.9689 -52.7625 0
16.9649 -50.1043 0
19.3508 -50.0777 0
19.529 -47.2341 0
16.9649 -50.1043 0
16.9626 -47.2598 0
27.6708 -46.8022 0
28.3485 -43.8066 0
24.8346 -47.0053 0
25.3438 -43.9985 0
28.3485 -43.8066 0
28.9868 -40.6465 0
25.3438 -43.9985 0
25.8236 -40.8266 0
24.8346 -47.0053 0
25.3438 -43.9985 0
22.1372 -47.1494 0
22.4773 -44.1344 0
25.3438 -43.9985 0
25.8236 -40.8266 0
22.4773 -44.1344 0
22.7974 -40.9536 0
28.9868 -40.6465 0
29.5842 -37.3326 0
25.8236 -40.8266 0
26.2727 -37.5003 0
29.5842 -37.3326 0
30.1394 -33.8761 0
26.2727 -37.5003 0
26.6896 -34.0309 0
25.8236 -40.8266 0
26.2727 -37.5003 0
22.7974 -40.9536 0
23.0961 -37.6175 0
26.2727 -37.5003 0
26.6896 -34.0309 0
23.0961 -37.6175 0
23.3714 -34.1372 0
22.1372 -47.1494 0
22.4773 -44.1344 0
19.529 -47.2341 0
19.6984 -44.214 0
22.4773 -44.1344 0
22.7974 -40.9536 0
19.6984 -44.214 0
19.8577 -41.0271 0
19.529 -47.2341 0
19.6984 -44.214 0
16.9626 -47.2598 0
16.961 -44.238 0
19.6984 -44.214 0
19.8577 -41.0271 0
16.961 -44.238 0
16.9591 -41.0481 0
22.7974 -40.9536 0
23.0961 -37.6175 0
19.8577 -41.0271 0
20.0051 -37.6836 0
23.0961 -37.6175 0
23.3714 -34.1372 0
20.0051 -37.6836 0
20.1386 -34.1942 0
19.8577 -41.0271 0
20.0051 -37.6836 0
16.9591 -41.0481 0
16.9556 -37.7002 0
20.0051 -37.6836 0
20.1386 -34.1942 0
16.9556 -37.7002 0
16.9489 -34.2045 0
16.9846 -57.4865 0
16.9752 -55.2259 0
15.1855 -57.4435 0
14.9717 -55.1857 0
16.9752 -55.2259 0
16.9689 -52.7625 0
14.9717 -55.1857 0
14.7689 -52.7253 0
15.1855 -57.4435 0
14.9717 -55.1857 0
13.3319 -57.333 0
12.9177 -55.0804 0
14.9717 -55.1857 0
14.7689 -52.7253 0
12.9177 -55.0804 0
12.5215 -52.6255 0
16.9689 -52.7625 0
16.9649 -50.1043 0
14.7689 -52.7253 0
14.5767 -50.0699 0
16.9649 -50.1043 0
16.9626 -47.2598 0
14.5767 -50.0699 0
14.3948 -47.2277 0
14.7689 -52.7253 0
14.5767 -50.0699 0
12.5215 -52.6255 0
12.1432 -49.9756 0
14.5767 -50.0699 0
14.3948 -47.2277 0
12.1432 -49.9756 0
11.7834 -47.1385 0
13.3319 -57.333 0
12.9177 -55.0804 0
11.3828 -57.1569 0
10.7708 -54.9115 0
12.9177 -55.0804 0
12.5215 -52.6255 0
10.7708 -54.9115 0
10.1829 -52.4641 0
11.3828 -57.1569 0
10.7708 -54.9115 0
9.30907 -56.9146 0
8.49592 -54.6782 0
10.7708 -54.9115 0
10.1829 -52.4641 0
8.49592 -54.6782 0
7.71304 -52.2402 0
12.5215 -52.6255 0
12.1432 -49.9756 0
10.1829 -52.4641 0
9.62 -49.8218 0
12.1432 -49.9756 0
11.7834 -47.1385 0
9.62 -49.8218 0
9.08352 -46.9926 0
10.1829 -52.4641 0
9.62 -49.8218 0
7.71304 -52.2402 0
6.96266 -49.6079 0
9.62 -49.8218 0
9.08352 -46.9926 0
6.96266 -49.6079 0
6.24698 -46.7892 0
16.9626 -47.2598 0
16.961 -44.238 0
14.3948 -47.2277 0
14.2228 -44.2074 0
16.961 -44.238 0
16.9591 -41.0481 0
14.2228 -44.2074 0
14.0606 -41.0181 0
14.3948 -47.2277 0
14.2228 -44.2074 0
11.7834 -47.1385 0
11.4426 -44.1231 0
14.2228 -44.2074 0
14.0606 -41.0181 0
11.4426 -44.1231 0
11.1215 -40.9382 0
16.9591 -41.0481 0
16.9556 -37.7002 0
14.0606 -41.0181 0
13.9076 -37.6695 0
16.9556 -37.7002 0
16.9489 -34.2045 0
13.9076 -37.6695 0
13.7632 -34.1719 0
14.0606 -41.0181 0
13.9076 -37.6695 0
11.1215 -40.9382 0
10.8209 -37.5934 0
13.9076 -37.6695 0
13.7632 -34.1719 0
10.8209 -37.5934 0
10.5419 -34.0992 0
11.7834 -47.1385 0
11.4426 -44.1231 0
9.08352 -46.9926 0
8.57496 -43.9852 0
11.4426 -44.1231 0
11.1215 -40.9382 0
8.57496 -43.9852 0
8.09612 -40.8085 0
9.08352 -46.9926 0
8.57496 -43.9852 0
6.24698 -46.7892 0
5.56831 -43.7929 0
8.57496 -43.9852 0
8.09612 -40.8085 0
5.56831 -43.7929 0
4.92933 -40.6282 0
11.1215 -40.9382 0
10.8209 -37.5934 0
8.09612 -40.8085 0
7.64921 -37.4723 0
10.8209 -37.5934 0
10.5419 -34.0992 0
7.64921 -37.4723 0
7.23706 -33.9871 0
8.09612 -40.8085 0
7.64921 -37.4723 0
4.92933 -40.6282 0
4.33334 -37.3049 0
7.64921 -37.4723 0
7.23706 -33.9871 0
4.33334 -37.3049 0
3.78477 -33.8339 0
16.875 -66.1033 0
17.9219 -65.9465 0
16.875 -66.4082 0
17.6308 -66.2497 0
17.9219 -65.9465 0
18.9581 -65.48 0
17.6308 -66.2497 0
18.3804 -65.7782 0
16.875 -66.4082 0
17.6308 -66.2497 0
16.875 -66.6428 0
17.3817 -66.4812 0
17.6308 -66.2497 0
18.3804 -65.7782 0
17.3817 -66.4812 0
17.8815 -66.0017 0
18.9581 -65.48 0
19.9743 -64.7144 0
18.3804 -65.7782 0
19.1186 -65.0053 0
19.9743 -64.7144 0
20.9637 -63.6647 0
19.1186 -65.0053 0
19.8412 -63.9468 0
18.3804 -65.7782 0
19.1186 -65.0053 0
17.8815 -66.0017 0
18.3694 -65.2182 0
19.1186 -65.0053 0
19.8412 -63.9468 0
18.3694 -65.2182 0
18.8435 -64.1491 0
16.875 -66.6428 0
17.3817 -66.4812 0
16.875 -66.8404 0
17.1607 -66.6716 0
17.3817 -66.4812 0
17.8815 -66.0017 0
17.1607 -66.6716 0
17.4344 -66.174 0
16.875 -66.8404 0
17.1607 -66.6716 0
16.875 -67.021 0
16.9535 -66.8377 0
17.1607 -66.6716 0
17.4344 -66.174 0
16.9535 -66.8377 0
17.0106 -66.3053 0
17.8815 -66.0017 0
18.3694 -65.2182 0
17.4344 -66.174 0
17.6895 -65.3687 0
18.3694 -65.2182 0
18.8435 -64.1491 0
17.6895 -65.3687 0
17.9267 -64.2803 0
17.4344 -66.174 0
17.6895 -65.3687 0
17.0106 -66.3053 0
17.0379 -65.4616 0
17.6895 -65.3687 0
17.9267 -64.2803 0
17.0379 -65.4616 0
17.0408 -64.3429 0
20.9637 -63.6647 0
21.922 -62.3475 0
19.8412 -63.9468 0
20.5452 -62.6203 0
21.922 -62.3475 0
22.847 -60.7793 0
20.5452 -62.6203 0
21.2287 -61.0425 0
19.8412 -63.9468 0
20.5452 -62.6203 0
18.8435 -64.1491 0
19.3037 -62.8131 0
20.5452 -62.6203 0
21.2287 -61.0425 0
19.3037 -62.8131 0
19.7506 -61.2273 0
22.847 -60.7793 0
23.7378 -58.9745 0
21.2287 -61.0425 0
21.8903 -59.2281 0
23.7378 -58.9745 0
24.5943 -56.9459 0
21.8903 -59.2281 0
22.5288 -57.1898 0
21.2287 -61.0425 0
21.8903 -59.2281 0
19.7506 -61.2273 0
20.1844 -59.4059 0
21.8903 -59.2281 0
22.5288 -57.1898 0
20.1844 -59.4059 0
20.6049 -57.3612 0
18.8435 -64.1491 0
19.3037 -62.8131 0
17.9267 -64.2803 0
18.15 -62.9303 0
19.3037 -62.8131 0
19.7506 -61.2273 0
18.15 -62.9303 0
18.3641 -61.3353 0
17.9267 -64.2803 0
18.15 -62.9303 0
17.0408 -64.3429 0
17.0296 -62.9734 0
18.15 -62.9303 0
18.3641 -61.3353 0
17.0296 -62.9734 0
17.0133 -61.368 0
19.7506 -61.2273 0
20.1844 -59.4059 0
18.3641 -61.3353 0
18.5719 -59.5082 0
20.1844 -59.4059 0
20.6049 -57.3612 0
18.5719 -59.5082 0
18.7747 -57.4597 0
18.3641 -61.3353 0
18.5719 -59.5082 0
17.0133 -61.368 0
16.9975 -59.5364 0
18.5719 -59.5082 0
18.7747 -57.4597 0
16.9975 -59.5364 0
16.9846 -57.4865 0
16.875 -67.021 0
16.9535 -66.8377 0
16.875 -67.1931 0
16.7469 -66.9823 0
16.9535 -66.8377 0
17.0106 -66.3053 0
16.7469 -66.9823 0
16.5822 -66.3896 0
16.875 -67.1931 0
16.7469 -66.9823 0
16.875 -67.3565 0
16.5222 -67.0947 0
16.7469 -66.9823 0
16.5822 -66.3896 0
16.5222 -67.0947 0
16.1176 -66.4026 0
17.0106 -66.3053 0
17.0379 -65.4616 0
16.5822 -66.3896 0
16.3743 -65.488 0
17.0379 -65.4616 0
17.0408 -64.3429 0
16.3743 -65.488 0
16.1372 -64.3299 0
16.5822 -66.3896 0
16.3743 -65.488 0
16.1176 -66.4026 0
15.651 -65.4232 0
16.3743 -65.488 0
16.1372 -64.3299 0
15.651 -65.4232 0
15.1617 -64.2285 0
16.875 -67.3565 0
16.5222 -67.0947 0
16.875 -67.5172 0
16.269 -67.1408 0
16.5222 -67.0947 0
16.1176 -66.4026 0
16.269 -67.1408 0
15.547 -66.2807 0
16.875 -67.5172 0
16.269 -67.1408 0
16.875 -67.5781 0
15.7288 -67.0278 0
16.269 -67.1408 0
15.547 -66.2807 0
15.7288 -67.0278 0
14.6954 -65.9942 0
16.1176 -66.4026 0
15.651 -65.4232 0
15.547 -66.2807 0
14.7872 -65.2402 0
15.651 -65.4232 0
15.1617 -64.2285 0
14.7872 -65.2402 0
14.058 -64.0358 0
15.547 -66.2807 0
14.7872 -65.2402 0
14.6954 -65.9942 0
13.7424 -64.9656 0
14.7872 -65.2402 0
14.058 -64.0358 0
13.7424 -64.9656 0
12.8146 -63.764 0
17.0408 -64.3429 0
17.0296 -62.9734 0
16.1372 -64.3299 0
15.89 -62.9396 0
17.0296 -62.9734 0
17.0133 -61.368 0
15.89 -62.9396 0
15.6459 -61.3256 0
16.1372 -64.3299 0
15.89 -62.9396 0
15.1617 -64.2285 0
14.68 -62.8254 0
15.89 -62.9396 0
15.6459 -61.3256 0
14.68 -62.8254 0
14.2133 -61.2087 0
17.0133 -61.368 0
16.9975 -59.5364 0
15.6459 -61.3256 0
15.4103 -59.4921 0
16.9975 -59.5364 0
16.9846 -57.4865 0
15.4103 -59.4921 0
15.1855 -57.4435 0
15.6459 -61.3256 0
15.4103 -59.4921 0
14.2133 -61.2087 0
13.7638 -59.3772 0
15.4103 -59.4921 0
15.1855 -57.4435 0
13.7638 -59.3772 0
13.3319 -57.333 0
15.1617 -64.2285 0
14.68 -62.8254 0
14.058 -64.0358 0
13.355 -62.6324 0
14.68 -62.8254 0
14.2133 -61.2087 0
13.355 -62.6324 0
12.6752 -61.0198 0
14.058 -64.0358 0
13.355 -62.6324 0
12.8146 -63.764 0
11.9055 -62.3673 0
13.355 -62.6324 0
12.6752 -61.0198 0
11.9055 -62.3673 0
11.0165 -60.7617 0
14.2133 -61.2087 0
13.7638 -59.3772 0
12.6752 -61.0198 0
12.0178 -59.1943 0
13.7638 -59.3772 0
13.3319 -57.333 0
12.0178 -59.1943 0
11.3828 -57.1569 0
12.6752 -61.0198 0
12.0178 -59.1943 0
11.0165 -60.7617 0
10.1501 -58.9438 0
12.0178 -59.1943 0
11.3828 -57.1569 0
10.1501 -58.9438 0
9.30907 -56.9146 0
9.1557 -56.9459 0
10.0122 -58.9745 0
11.2211 -57.1898 0
11.8597 -59.2281 0
10.0122 -58.9745 0
10.903 -60.7793 0
11.8597 -59.2281 0
12.5213 -61.0425 0
11.2211 -57.1898 0
11.8597 -59.2281 0
13.1451 -57.3612 0
13.5656 -59.4059 0
11.8597 -59.2281 0
12.5213 -61.0425 0
13.5656 -59.4059 0
13.9994 -61.2273 0
10.903 -60.7793 0
11.828 -62.3475 0
12.5213 -61.0425 0
13.2048 -62.6203 0
11.828 -62.3475 0
12.7863 -63.6647 0
13.2048 -62.6203 0
13.9088 -63.9468 0
12.5213 -61.0425 0
13.2048 -62.6203 0
13.9994 -61.2273 0
14.4463 -62.8131 0
13.2048 -62.6203 0
13.9088 -63.9468 0
14.4463 -62.8131 0
14.9065 -64.1491 0
13.1451 -57.3612 0
13.5656 -59.4059 0
14.9753 -57.4597 0
15.1781 -59.5082 0
13.5656 -59.4059 0
13.9994 -61.2273 0
15.1781 -59.5082 0
15.3859 -61.3353 0
14.9753 -57.4597 0
15.1781 -59.5082 0
16.7654 -57.4865 0
16.7524 -59.5364 0
15.1781 -59.5082 0
15.3859 -61.3353 0
16.7524 -59.5364 0
16.7367 -61.368 0
13.9994 -61.2273 0
14.4463 -62.8131 0
15.3859 -61.3353 0
15.5999 -62.9303 0
14.4463 -62.8131 0
14.9065 -64.1491 0
15.5999 -62.9303 0
15.8233 -64.2803 0
15.3859 -61.3353 0
15.5999 -62.9303 0
16.7367 -61.368 0
16.7204 -62.9734 0
15.5999 -62.9303 0
15.8233 -64.2803 0
16.7204 -62.9734 0
16.7092 -64.3429 0
12.7863 -63.6647 0
13.7757 -64.7144 0
13.9088 -63.9468 0
14.6314 -65.0053 0
13.7757 -64.7144 0
14.7919 -65.48 0
14.6314 -65.0053 0
15.3696 -65.7782 0
13.9088 -63.9468 0
14.6314 -65.0053 0
14.9065 -64.1491 0
15.3806 -65.2182 0
14.6314 -65.0053 0
15.3696 -65.7782 0
15.3806 -65.2182 0
15.8685 -66.0017 0
14.7919 -65.48 0
15.8281 -65.9465 0
15.3696 -65.7782 0
16.1192 -66.2497 0
15.8281 -65.9465 0
16.875 -66.1033 0
16.1192 -66.2497 0
16.875 -66.4082 0
15.3696 -65.7782 0
16.1192 -66.2497 0
15.8685 -66.0017 0
16.3682 -66.4812 0
16.1192 -66.2497 0
16.875 -66.4082 0
16.3682 -66.4812 0
16.875 -66.6428 0
14.9065 -64.1491 0
15.3806 -65.2182 0
15.8233 -64.2803 0
16.0605 -65.3687 0
15.3806 -65.2182 0
15.8685 -66.0017 0
16.0605 -65.3687 0
16.3156 -66.174 0
15.8233 -64.2803 0
16.0605 -65.3687 0
16.7092 -64.3429 0
16.7121 -65.4616 0
16.0605 -65.3687 0
16.3156 -66.174 0
16.7121 -65.4616 0
16.7394 -66.3053 0
15.8685 -66.0017 0
16.3682 -66.4812 0
16.3156 -66.174 0
16.5892 -66.6716 0
16.3682 -66.4812 0
16.875 -66.6428 0
16.5892 -66.6716 0
16.875 -66.8404 0
16.3156 -66.174 0
16.5892 -66.6716 0
16.7394 -66.3053 0
16.7965 -66.8377 0
16.5892 -66.6716 0
16.875 -66.8404 0
16.7965 -66.8377 0
16.875 -67.021 0
16.7654 -57.4865 0
16.7524 -59.5364 0
18.5645 -57.4435 0
18.3396 -59.4921 0
16.7524 -59.5364 0
16.7367 -61.368 0
18.3396 -59.4921 0
18.1041 -61.3256 0
18.5645 -57.4435 0
18.3396 -59.4921 0
20.4181 -57.333 0
19.9862 -59.3772 0
18.3396 -59.4921 0
18.1041 -61.3256 0
19.9862 -59.3772 0
19.5367 -61.2087 0
16.7367 -61.368 0
16.7204 -62.9734 0
18.1041 -61.3256 0
17.8599 -62.9396 0
16.7204 -62.9734 0
16.7092 -64.3429 0
17.8599 -62.9396 0
17.6127 -64.3299 0
18.1041 -61.3256 0
17.8599 -62.9396 0
19.5367 -61.2087 0
19.07 -62.8254 0
17.8599 -62.9396 0
17.6127 -64.3299 0
19.07 -62.8254 0
18.5883 -64.2285 0
20.4181 -57.333 0
19.9862 -59.3772 0
22.3672 -57.1569 0
21.7322 -59.1943 0
19.9862 -59.3772 0
19.5367 -61.2087 0
21.7322 -59.1943 0
21.0748 -61.0198 0
22.3672 -57.1569 0
21.7322 -59.1943 0
24.4409 -56.9146 0
23.5999 -58.9438 0
21.7322 -59.1943 0
21.0748 -61.0198 0
23.5999 -58.9438 0
22.7335 -60.7617 0
19.5367 -61.2087 0
19.07 -62.8254 0
21.0748 -61.0198 0
20.395 -62.6324 0
19.07 -62.8254 0
18.5883 -64.2285 0
20.395 -62.6324 0
19.692 -64.0358 0
21.0748 -61.0198 0
20.395 -62.6324 0
22.7335 -60.7617 0
21.8445 -62.3673 0
20.395 -62.6324 0
19.692 -64.0358 0
21.8445 -62.3673 0
20.9353 -63.764 0
16.7092 -64.3429 0
16.7121 -65.4616 0
17.6127 -64.3299 0
17.3757 -65.488 0
16.7121 -65.4616 0
16.7394 -66.3053 0
17.3757 -65.488 0
17.1678 -66.3896 0
17.6127 -64.3299 0
17.3757 -65.488 0
18.5883 -64.2285 0
18.0989 -65.4232 0
17.3757 -65.488 0
17.1678 -66.3896 0
18.0989 -65.4232 0
17.6324 -66.4026 0
16.7394 -66.3053 0
16.7965 -66.8377 0
17.1678 -66.3896 0
17.0031 -66.9823 0
16.7965 -66.8377 0
16.875 -67.021 0
17.0031 -66.9823 0
16.875 -67.1931 0
17.1678 -66.3896 0
17.0031 -66.9823 0
17.6324 -66.4026 0
17.2278 -67.0947 0
17.0031 -66.9823 0
16.875 -67.1931 0
17.2278 -67.0947 0
16.875 -67.3565 0
18.5883 -64.2285 0
18.0989 -65.4232 0
19.692 -64.0358 0
18.9628 -65.2402 0
18.0989 -65.4232 0
17.6324 -66.4026 0
18.9628 -65.2402 0
18.203 -66.2807 0
19.692 -64.0358 0
18.9628 -65.2402 0
20.9353 -63.764 0
20.0076 -64.9656 0
18.9628 -65.2402 0
18.203 -66.2807 0
20.0076 -64.9656 0
19.0546 -65.9942 0
17.6324 -66.4026 0
17.2278 -67.0947 0
18.203 -66.2807 0
17.481 -67.1408 0
17.2278 -67.0947 0
16.875 -67.3565 0
17.481 -67.1408 0
16.875 -67.5172 0
18.203 -66.2807 0
17.481 -67.1408 0
19.0546 -65.9942 0
18.0212 -67.0278 0
17.481 -67.1408 0
16.875 -67.5172 0
18.0212 -67.0278 0
16.875 -67.5781 0
3.61062 -33.8761 0
4.16576 -37.3326 0
7.06038 -34.0309 0
7.47726 -37.5003 0
4.16576 -37.3326 0
4.76316 -40.6465 0
7.47726 -37.5003 0
7.92634 -40.8266 0
7.06038 -34.0309 0
7.47726 -37.5003 0
10.3786 -34.1372 0
10.6539 -37.6175 0
7.47726 -37.5003 0
7.92634 -40.8266 0
10.6539 -37.6175 0
10.9526 -40.9536 0
4.76316 -40.6465 0
5.40149 -43.8066 0
7.92634 -40.8266 0
8.40617 -43.9985 0
5.40149 -43.8066 0
6.07914 -46.8022 0
8.40617 -43.9985 0
8.91537 -47.0053 0
7.92634 -40.8266 0
8.40617 -43.9985 0
10.9526 -40.9536 0
11.2727 -44.1344 0
8.40617 -43.9985 0
8.91537 -47.0053 0
11.2727 -44.1344 0
11.6128 -47.1494 0
10.3786 -34.1372 0
10.6539 -37.6175 0
13.6114 -34.1942 0
13.7448 -37.6836 0
10.6539 -37.6175 0
10.9526 -40.9536 0
13.7448 -37.6836 0