# vtk DataFile Version 3.0
#This file was generated by the deal.II library on 2020/9/2 at 8:39:05
ASCII
DATASET UNSTRUCTURED_GRID

POINTS 1536 double
5 0 0
5.125 0 0
5 0.125 0
5.125 0.125 0
5.125 0 0
5.25 0 0
5.125 0.125 0
5.25 0.125 0
5 0.125 0
5.125 0.125 0
5 0.25 0
5.125 0.25 0
5.125 0.125 0
5.25 0.125 0
5.125 0.25 0
5.25 0.25 0
5.25 0 0
5.375 0 0
5.25 0.125 0
5.375 0.125 0
5.375 0 0
5.5 0 0
5.375 0.125 0
5.5 0.125 0
5.25 0.125 0
5.375 0.125 0
5.25 0.25 0
5.375 0.25 0
5.375 0.125 0
5.5 0.125 0
5.375 0.25 0
5.5 0.25 0
5 0.25 0
5.125 0.25 0
5 0.375 0
5.125 0.375 0
5.125 0.25 0
5.25 0.25 0
5.125 0.375 0
5.25 0.375 0
5 0.375 0
5.125 0.375 0
5 0.5 0
5.125 0.5 0
5.125 0.375 0
5.25 0.375 0
5.125 0.5 0
5.25 0.5 0
5.25 0.25 0
5.375 0.25 0
5.25 0.375 0
5.375 0.375 0
5.375 0.25 0
5.5 0.25 0
5.375 0.375 0
5.5 0.375 0
5.25 0.375 0
5.375 0.375 0
5.25 0.5 0
5.375 0.5 0
5.375 0.375 0
5.5 0.375 0
5.375 0.5 0
5.5 0.5 0
5.5 0 0
5.625 0 0
5.5 0.125 0
5.625 0.125 0
5.625 0 0
5.75 0 0
5.625 0.125 0
5.75 0.125 0
5.5 0.125 0
5.625 0.125 0
5.5 0.25 0
5.625 0.25 0
5.625 0.125 0
5.75 0.125 0
5.625 0.25 0
5.75 0.25 0
5.75 0 0
5.875 0 0
5.75 0.125 0
5.875 0.125 0
5.875 0 0
6 0 0
5.875 0.125 0
6 0.125 0
5.75 0.125 0
5.875 0.125 0
5.75 0.25 0
5.875 0.25 0
5.875 0.125 0
6 0.125 0
5.875 0.25 0
6 0.25 0
5.5 0.25 0
5.625 0.25 0
5.5 0.375 0
5.625 0.375 0
5.625 0.25 0
5.75 0.25 0
5.625 0.375 0
5.75 0.375 0
5.5 0.375 0
5.625 0.375 0
5.5 0.5 0
5.625 0.5 0
5.625 0.375 0
5.75 0.375 0
5.625 0.5 0
5.75 0.5 0
5.75 0.25 0
5.875 0.25 0
5.75 0.375 0
5.875 0.375 0
5.875 0.25 0
6 0.25 0
5.875 0.375 0
6 0.375 0
5.75 0.375 0
5.875 0.375 0
5.75 0.5 0
5.875 0.5 0
5.875 0.375 0
6 0.375 0
5.875 0.5 0
6 0.5 0
5 0.5 0
5.125 0.5 0
5 0.625 0
5.125 0.625 0
5.125 0.5 0
5.25 0.5 0
5.125 0.625 0
5.25 0.625 0
5 0.625 0
5.125 0.625 0
5 0.75 0
5.125 0.75 0
5.125 0.625 0
5.25 0.625 0
5.125 0.75 0
5.25 0.75 0
5.25 0.5 0
5.375 0.5 0
5.25 0.625 0
5.375 0.625 0
5.375 0.5 0
5.5 0.5 0
5.375 0.625 0
5.5 0.625 0
5.25 0.625 0
5.375 0.625 0
5.25 0.75 0
5.375 0.75 0
5.375 0.625 0
5.5 0.625 0
5.375 0.75 0
5.5 0.75 0
5 0.75 0
5.125 0.75 0
5 0.875 0
5.125 0.875 0
5.125 0.75 0
5.25 0.75 0
5.125 0.875 0
5.25 0.875 0
5 0.875 0
5.125 0.875 0
5 1 0
5.125 1 0
5.125 0.875 0
5.25 0.875 0
5.125 1 0
5.25 1 0
5.25 0.75 0
5.375 0.75 0
5.25 0.875 0
5.375 0.875 0
5.375 0.75 0
5.5 0.75 0
5.375 0.875 0
5.5 0.875 0
5.25 0.875 0
5.375 0.875 0
5.25 1 0
5.375 1 0
5.375 0.875 0
5.5 0.875 0
5.375 1 0
5.5 1 0
5.5 0.5 0
5.625 0.5 0
5.5 0.625 0
5.625 0.625 0
5.625 0.5 0
5.75 0.5 0
5.625 0.625 0
5.75 0.625 0
5.5 0.625 0
5.625 0.625 0
5.5 0.75 0
5.625 0.75 0
5.625 0.625 0
5.75 0.625 0
5.625 0.75 0
5.75 0.75 0
5.75 0.5 0
5.875 0.5 0
5.75 0.625 0
5.875 0.625 0
5.875 0.5 0
6 0.5 0
5.875 0.625 0
6 0.625 0
5.75 0.625 0
5.875 0.625 0
5.75 0.75 0
5.875 0.75 0
5.875 0.625 0
6 0.625 0
5.875 0.75 0
6 0.75 0
5.5 0.75 0
5.625 0.75 0
5.5 0.875 0
5.625 0.875 0
5.625 0.75 0
5.75 0.75 0
5.625 0.875 0
5.75 0.875 0
5.5 0.875 0
5.625 0.875 0
5.5 1 0
5.625 1 0
5.625 0.875 0
5.75 0.875 0
5.625 1 0
5.75 1 0
5.75 0.75 0
5.875 0.75 0
5.75 0.875 0
5.875 0.875 0
5.875 0.75 0
6 0.75 0
5.875 0.875 0
6 0.875 0
5.75 0.875 0
5.875 0.875 0
5.75 1 0
5.875 1 0
5.875 0.875 0
6 0.875 0
5.875 1 0
6 1 0
4 0 0
4.125 0 0
4 0.125 0
4.125 0.125 0
4.125 0 0
4.25 0 0
4.125 0.125 0
4.25 0.125 0
4 0.125 0
4.125 0.125 0
4 0.25 0
4.125 0.25 0
4.125 0.125 0
4.25 0.125 0
4.125 0.25 0
4.25 0.25 0
4.25 0 0
4.375 0 0
4.25 0.125 0
4.375 0.125 0
4.375 0 0
4.5 0 0
4.375 0.125 0
4.5 0.125 0
4.25 0.125 0
4.375 0.125 0
4.25 0.25 0
4.375 0.25 0
4.375 0.125 0
4.5 0.125 0
4.375 0.25 0
4.5 0.25 0
4 0.25 0
4.125 0.25 0
4 0.375 0
4.125 0.375 0
4.125 0.25 0
4.25 0.25 0
4.125 0.375 0
4.25 0.375 0
4 0.375 0
4.125 0.375 0
4 0.5 0
4.125 0.5 0
4.125 0.375 0
4.25 0.375 0
4.125 0.5 0
4.25 0.5 0
4.25 0.25 0
4.375 0.25 0
4.25 0.375 0
4.375 0.375 0
4.375 0.25 0
4.5 0.25 0
4.375 0.375 0
4.5 0.375 0
4.25 0.375 0
4.375 0.375 0
4.25 0.5 0
4.375 0.5 0
4.375 0.375 0
4.5 0.375 0
4.375 0.5 0
4.5 0.5 0
4.5 0 0
4.625 0 0
4.5 0.125 0
4.625 0.125 0
4.625 0 0
4.75 0 0
4.625 0.125 0
4.75 0.125 0
4.5 0.125 0
4.625 0.125 0
4.5 0.25 0
4.625 0.25 0
4.625 0.125 0
4.75 0.125 0
4.625 0.25 0
4.75 0.25 0
4.75 0 0
4.875 0 0
4.75 0.125 0
4.875 0.125 0
4.875 0 0
5 0 0
4.875 0.125 0
5 0.125 0
4.75 0.125 0
4.875 0.125 0
4.75 0.25 0
4.875 0.25 0
4.875 0.125 0
5 0.125 0
4.875 0.25 0
5 0.25 0
4.5 0.25 0
4.625 0.25 0
4.5 0.375 0
4.625 0.375 0
4.625 0.25 0
4.75 0.25 0
4.625 0.375 0
4.75 0.375 0
4.5 0.375 0
4.625 0.375 0
4.5 0.5 0
4.625 0.5 0
4.625 0.375 0
4.75 0.375 0
4.625 0.5 0
4.75 0.5 0
4.75 0.25 0
4.875 0.25 0
4.75 0.375 0
4.875 0.375 0
4.875 0.25 0
5 0.25 0
4.875 0.375 0
5 0.375 0
4.75 0.375 0
4.875 0.375 0
4.75 0.5 0
4.875 0.5 0
4.875 0.375 0
5 0.375 0
4.875 0.5 0
5 0.5 0
4 0.5 0
4.125 0.5 0
4 0.625 0
4.125 0.625 0
4.125 0.5 0
4.25 0.5 0
4.125 0.625 0
4.25 0.625 0
4 0.625 0
4.125 0.625 0
4 0.75 0
4.125 0.75 0
4.125 0.625 0
4.25 0.625 0
4.125 0.75 0
4.25 0.75 0
4.25 0.5 0
4.375 0.5 0
4.25 0.625 0
4.375 0.625 0
4.375 0.5 0
4.5 0.5 0
4.375 0.625 0
4.5 0.625 0
4.25 0.625 0
4.375 0.625 0
4.25 0.75 0
4.375 0.75 0
4.375 0.625 0
4.5 0.625 0
4.375 0.75 0
4.5 0.75 0
4 0.75 0
4.125 0.75 0
4 0.875 0
4.125 0.875 0
4.125 0.75 0
4.25 0.75 0
4.125 0.875 0
4.25 0.875 0
4 0.875 0
4.125 0.875 0
4 1 0
4.125 1 0
4.125 0.875 0
4.25 0.875 0
4.125 1 0
4.25 1 0
4.25 0.75 0
4.375 0.75 0
4.25 0.875 0
4.375 0.875 0
4.375 0.75 0
4.5 0.75 0
4.375 0.875 0
4.5 0.875 0
4.25 0.875 0
4.375 0.875 0
4.25 1 0
4.375 1 0
4.375 0.875 0
4.5 0.875 0
4.375 1 0
4.5 1 0
4.5 0.5 0
4.625 0.5 0
4.5 0.625 0
4.625 0.625 0
4.625 0.5 0
4.75 0.5 0
4.625 0.625 0
4.75 0.625 0
4.5 0.625 0
4.625 0.625 0
4.5 0.75 0
4.625 0.75 0
4.625 0.625 0
4.75 0.625 0
4.625 0.75 0
4.75 0.75 0
4.75 0.5 0
4.875 0.5 0
4.75 0.625 0
4.875 0.625 0
4.875 0.5 0
5 0.5 0
4.875 0.625 0
5 0.625 0
4.75 0.625 0
4.875 0.625 0
4.75 0.75 0
4.875 0.75 0
4.875 0.625 0
5 0.625 0
4.875 0.75 0
5 0.75 0
4.5 0.75 0
4.625 0.75 0
4.5 0.875 0
4.625 0.875 0
4.625 0.75 0
4.75 0.75 0
4.625 0.875 0
4.75 0.875 0
4.5 0.875 0
4.625 0.875 0
4.5 1 0
4.625 1 0
4.625 0.875 0
4.75 0.875 0
4.625 1 0
4.75 1 0
4.75 0.75 0
4.875 0.75 0
4.75 0.875 0
4.875 0.875 0
4.875 0.75 0
5 0.75 0
4.875 0.875 0
5 0.875 0
4.75 0.875 0
4.875 0.875 0
4.75 1 0
4.875 1 0
4.875 0.875 0
5 0.875 0
4.875 1 0
5 1 0
3 0 0
3.125 0 0
3 0.125 0
3.125 0.125 0
3.125 0 0
3.25 0 0
3.125 0.125 0
3.25 0.125 0
3 0.125 0
3.125 0.125 0
3 0.25 0
3.125 0.25 0
3.125 0.125 0
3.25 0.125 0
3.125 0.25 0
3.25 0.25 0
3.25 0 0
3.375 0 0
3.25 0.125 0
3.375 0.125 0
3.375 0 0
3.5 0 0
3.375 0.125 0
3.5 0.125 0
3.25 0.125 0
3.375 0.125 0
3.25 0.25 0
3.375 0.25 0
3.375 0.125 0
3.5 0.125 0
3.375 0.25 0
3.5 0.25 0
3 0.25 0
3.125 0.25 0
3 0.375 0
3.125 0.375 0
3.125 0.25 0
3.25 0.25 0
3.125 0.375 0
3.25 0.375 0
3 0.375 0
3.125 0.375 0
3 0.5 0
3.125 0.5 0
3.125 0.375 0
3.25 0.375 0
3.125 0.5 0
3.25 0.5 0
3.25 0.25 0
3.375 0.25 0
3.25 0.375 0
3.375 0.375 0
3.375 0.25 0
3.5 0.25 0
3.375 0.375 0
3.5 0.375 0
3.25 0.375 0
3.375 0.375 0
3.25 0.5 0
3.375 0.5 0
3.375 0.375 0
3.5 0.375 0
3.375 0.5 0
3.5 0.5 0
3.5 0 0
3.625 0 0
3.5 0.125 0
3.625 0.125 0
3.625 0 0
3.75 0 0
3.625 0.125 0
3.75 0.125 0
3.5 0.125 0
3.625 0.125 0
3.5 0.25 0
3.625 0.25 0
3.625 0.125 0
3.75 0.125 0
3.625 0.25 0
3.75 0.25 0
3.75 0 0
3.875 0 0
3.75 0.125 0
3.875 0.125 0
3.875 0 0
4 0 0
3.875 0.125 0
4 0.125 0
3.75 0.125 0
3.875 0.125 0
3.75 0.25 0
3.875 0.25 0
3.875 0.125 0
4 0.125 0
3.875 0.25 0
4 0.25 0
3.5 0.25 0
3.625 0.25 0
3.5 0.375 0
3.625 0.375 0
3.625 0.25 0
3.75 0.25 0
3.625 0.375 0
3.75 0.375 0
3.5 0.375 0
3.625 0.375 0
3.5 0.5 0
3.625 0.5 0
3.625 0.375 0
3.75 0.375 0
3.625 0.5 0
3.75 0.5 0
3.75 0.25 0
3.875 0.25 0
3.75 0.375 0
3.875 0.375 0
3.875 0.25 0
4 0.25 0
3.875 0.375 0
4 0.375 0
3.75 0.375 0
3.875 0.375 0
3.75 0.5 0
3.875 0.5 0
3.875 0.375 0
4 0.375 0
3.875 0.5 0
4 0.5 0
3 0.5 0
3.125 0.5 0
3 0.625 0
3.125 0.625 0
3.125 0.5 0
3.25 0.5 0
3.125 0.625 0
3.25 0.625 0
3 0.625 0
3.125 0.625 0
3 0.75 0
3.125 0.75 0
3.125 0.625 0
3.25 0.625 0
3.125 0.75 0
3.25 0.75 0
3.25 0.5 0
3.375 0.5 0
3.25 0.625 0
3.375 0.625 0
3.375 0.5 0
3.5 0.5 0
3.375 0.625 0
3.5 0.625 0
3.25 0.625 0
3.375 0.625 0
3.25 0.75 0
3.375 0.75 0
3.375 0.625 0
3.5 0.625 0
3.375 0.75 0
3.5 0.75 0
3 0.75 0
3.125 0.75 0
3 0.875 0
3.125 0.875 0
3.125 0.75 0
3.25 0.75 0
3.125 0.875 0
3.25 0.875 0
3 0.875 0
3.125 0.875 0
3 1 0
3.125 1 0
3.125 0.875 0
3.25 0.875 0
3.125 1 0
3.25 1 0
3.25 0.75 0
3.375 0.75 0
3.25 0.875 0
3.375 0.875 0
3.375 0.75 0
3.5 0.75 0
3.375 0.875 0
3.5 0.875 0
3.25 0.875 0
3.375 0.875 0
3.25 1 0
3.375 1 0
3.375 0.875 0
3.5 0.875 0
3.375 1 0
3.5 1 0
3.5 0.5 0
3.625 0.5 0
3.5 0.625 0
3.625 0.625 0
3.625 0.5 0
3.75 0.5 0
3.625 0.625 0
3.75 0.625 0
3.5 0.625 0
3.625 0.625 0
3.5 0.75 0
3.625 0.75 0
3.625 0.625 0
3.75 0.625 0
3.625 0.75 0
3.75 0.75 0
3.75 0.5 0
3.875 0.5 0
3.75 0.625 0
3.875 0.625 0
3.875 0.5 0
4 0.5 0
3.875 0.625 0
4 0.625 0
3.75 0.625 0
3.875 0.625 0
3.75 0.75 0
3.875 0.75 0
3.875 0.625 0
4 0.625 0
3.875 0.75 0
4 0.75 0
3.5 0.75 0
3.625 0.75 0
3.5 0.875 0
3.625 0.875 0
3.625 0.75 0
3.75 0.75 0
3.625 0.875 0
3.75 0.875 0
3.5 0.875 0
3.625 0.875 0
3.5 1 0
3.625 1 0
3.625 0.875 0
3.75 0.875 0
3.625 1 0
3.75 1 0
3.75 0.75 0
3.875 0.75 0
3.75 0.875 0
3.875 0.875 0
3.875 0.75 0
4 0.75 0
3.875 0.875 0
4 0.875 0
3.75 0.875 0
3.875 0.875 0
3.75 1 0
3.875 1 0
3.875 0.875 0
4 0.875 0
3.875 1 0
4 1 0
2 0 0
2.125 0 0
2 0.125 0
2.125 0.125 0
2.125 0 0
2.25 0 0
2.125 0.125 0
2.25 0.125 0
2 0.125 0
2.125 0.125 0
2 0.25 0
2.125 0.25 0
2.125 0.125 0
2.25 0.125 0
2.125 0.25 0
2.25 0.25 0
2.25 0 0
2.375 0 0
2.25 0.125 0
2.375 0.125 0
2.375 0 0
2.5 0 0
2.375 0.125 0
2.5 0.125 0
2.25 0.125 0
2.375 0.125 0
2.25 0.25 0
2.375 0.25 0
2.375 0.125 0
2.5 0.125 0
2.375 0.25 0
2.5 0.25 0
2 0.25 0
2.125 0.25 0
2 0.375 0
2.125 0.375 0
2.125 0.25 0
2.25 0.25 0
2.125 0.375 0
2.25 0.375 0
2 0.375 0
2.125 0.375 0
2 0.5 0
2.125 0.5 0
2.125 0.375 0
2.25 0.375 0
2.125 0.5 0
2.25 0.5 0
2.25 0.25 0
2.375 0.25 0
2.25 0.375 0
2.375 0.375 0
2.375 0.25 0
[...]
POINT_DATA 1536
VECTORS displacements double
28.6532 -32.078 0
29.126 -28.6694 0
25.3703 -32.2214 0
25.7242 -28.7995 0
29.126 -28.6694 0
29.5572 -25.1513 0
25.7242 -28.7995 0
26.044 -25.2684 0
25.3703 -32.2214 0
25.7242 -28.7995 0
22.2034 -32.3201 0
22.4333 -28.8863 0
25.7242 -28.7995 0
26.044 -25.2684 0
22.4333 -28.8863 0
22.6346 -25.3419 0
29.5572 -25.1513 0
29.9516 -21.5335 0
26.044 -25.2684 0
26.3293 -21.6381 0
29.9516 -21.5335 0
30.3199 -17.8193 0
26.3293 -21.6381 0
26.5794 -17.9136 0
26.044 -25.2684 0
26.3293 -21.6381 0
22.6346 -25.3419 0
22.8028 -21.6965 0
26.3293 -21.6381 0
26.5794 -17.9136 0
22.8028 -21.6965 0
22.9301 -17.9535 0
22.2034 -32.3201 0
22.4333 -28.8863 0
19.1124 -32.3732 0
19.2195 -28.9288 0
22.4333 -28.8863 0
22.6346 -25.3419 0
19.2195 -28.9288 0
19.3063 -25.3716 0
19.1124 -32.3732 0
19.2195 -28.9288 0
16.0606 -32.3832 0
16.0491 -28.931 0
19.2195 -28.9288 0
19.3063 -25.3716 0
16.0491 -28.931 0
16.0293 -25.3645 0
22.6346 -25.3419 0
22.8028 -21.6965 0
19.3063 -25.3716 0
19.3674 -21.7112 0
22.8028 -21.6965 0
22.9301 -17.9535 0
19.3674 -21.7112 0
19.3966 -17.9536 0
19.3063 -25.3716 0
19.3674 -21.7112 0
16.0293 -25.3645 0
15.9981 -21.6951 0
19.3674 -21.7112 0
19.3966 -17.9536 0
15.9981 -21.6951 0
15.9543 -17.9346 0
30.3199 -17.8193 0
30.6833 -14.0006 0
26.5794 -17.9136 0
26.7888 -14.0829 0
30.6833 -14.0006 0
31.0865 -10.012 0
26.7888 -14.0829 0
26.9361 -10.1071 0
26.5794 -17.9136 0
26.7888 -14.0829 0
22.9301 -17.9535 0
23.0039 -14.1042 0
26.7888 -14.0829 0
26.9361 -10.1071 0
23.0039 -14.1042 0
23.0057 -10.1027 0
31.0865 -10.012 0
31.5833 -5.77222 0
26.9361 -10.1071 0
26.9295 -5.74576 0
31.5833 -5.77222 0
31.9781 0 0
26.9295 -5.74576 0
27.0474 -1.13004 0
26.9361 -10.1071 0
26.9295 -5.74576 0
23.0057 -10.1027 0
22.9978 -5.92536 0
26.9295 -5.74576 0
27.0474 -1.13004 0
22.9978 -5.92536 0
23.1158 -1.89406 0
22.9301 -17.9535 0
23.0039 -14.1042 0
19.3966 -17.9536 0
19.3898 -14.0977 0
23.0039 -14.1042 0
23.0057 -10.1027 0
19.3898 -14.0977 0
19.3643 -10.1472 0
19.3966 -17.9536 0
19.3898 -14.0977 0
15.9543 -17.9346 0
15.9046 -14.0986 0
19.3898 -14.0977 0
19.3643 -10.1472 0
15.9046 -14.0986 0
15.8708 -10.2219 0
23.0057 -10.1027 0
22.9978 -5.92536 0
19.3643 -10.1472 0
19.3775 -6.1751 0
22.9978 -5.92536 0
23.1158 -1.89406 0
19.3775 -6.1751 0
19.4726 -2.40291 0
19.3643 -10.1472 0
19.3775 -6.1751 0
15.8708 -10.2219 0
15.8831 -6.38658 0
19.3775 -6.1751 0
19.4726 -2.40291 0
15.8831 -6.38658 0
15.9478 -2.73635 0
16.0606 -32.3832 0
16.0491 -28.931 0
13.0129 -32.3534 0
12.8876 -28.8984 0
16.0491 -28.931 0
16.0293 -25.3645 0
12.8876 -28.8984 0
12.7694 -25.3287 0
13.0129 -32.3534 0
12.8876 -28.8984 0
9.9329 -32.2864 0
9.69741 -28.8347 0
12.8876 -28.8984 0
12.7694 -25.3287 0
9.69741 -28.8347 0
9.48658 -25.2691 0
16.0293 -25.3645 0
15.9981 -21.6951 0
12.7694 -25.3287 0
12.6585 -21.6589 0
15.9981 -21.6951 0
15.9543 -17.9346 0
12.6585 -21.6589 0
12.5576 -17.9078 0
12.7694 -25.3287 0
12.6585 -21.6589 0
9.48658 -25.2691 0
9.30308 -21.607 0
12.6585 -21.6589 0
12.5576 -17.9078 0
9.30308 -21.607 0
9.15141 -17.8721 0
9.9329 -32.2864 0
9.69741 -28.8347 0
6.77735 -32.1827 0
6.43281 -28.7408 0
9.69741 -28.8347 0
9.48658 -25.2691 0
6.43281 -28.7408 0
6.13085 -25.1866 0
6.77735 -32.1827 0
6.43281 -28.7408 0
3.49132 -32.0409 0
3.03414 -28.6148 0
6.43281 -28.7408 0
6.13085 -25.1866 0
3.03414 -28.6148 0
2.63719 -25.0788 0
9.48658 -25.2691 0
9.30308 -21.607 0
6.13085 -25.1866 0
5.87672 -21.5388 0
9.30308 -21.607 0
9.15141 -17.8721 0
5.87672 -21.5388 0
5.67602 -17.8233 0
6.13085 -25.1866 0
5.87672 -21.5388 0
2.63719 -25.0788 0
2.30974 -21.4522 0
5.87672 -21.5388 0
5.67602 -17.8233 0
2.30974 -21.4522 0
2.06166 -17.7609 0
15.9543 -17.9346 0
15.9046 -14.0986 0
12.5576 -17.9078 0
12.4759 -14.1031 0
15.9046 -14.0986 0
15.8708 -10.2219 0
12.4759 -14.1031 0
12.4284 -10.289 0
12.5576 -17.9078 0
12.4759 -14.1031 0
9.15141 -17.8721 0
9.03811 -14.0978 0
12.4759 -14.1031 0
12.4284 -10.289 0
9.03811 -14.0978 0
8.97018 -10.3292 0
15.8708 -10.2219 0
15.8831 -6.38658 0
12.4284 -10.289 0
12.4268 -6.53414 0
15.8831 -6.38658 0
15.9478 -2.73635 0
12.4268 -6.53414 0
12.4612 -2.93188 0
12.4284 -10.289 0
12.4268 -6.53414 0
8.97018 -10.3292 0
8.94932 -6.61925 0
12.4268 -6.53414 0
12.4612 -2.93188 0
8.94932 -6.61925 0
8.95841 -3.02073 0
9.15141 -17.8721 0
9.03811 -14.0978 0
5.67602 -17.8233 0
5.53284 -14.0751 0
9.03811 -14.0978 0
8.97018 -10.3292 0
5.53284 -14.0751 0
5.4468 -10.3378 0
5.67602 -17.8233 0
5.53284 -14.0751 0
2.06166 -17.7609 0
1.8996 -14.039 0
5.53284 -14.0751 0
5.4468 -10.3378 0
1.8996 -14.039 0
1.81974 -10.3269 0
8.97018 -10.3292 0
8.94932 -6.61925 0
5.4468 -10.3378 0
5.41033 -6.65429 0
8.94932 -6.61925 0
8.95841 -3.02073 0
5.41033 -6.65429 0
5.40399 -3.04212 0
5.4468 -10.3378 0
5.41033 -6.65429 0
1.81974 -10.3269 0
1.79957 -6.66035 0
5.41033 -6.65429 0
5.40399 -3.04212 0
1.79957 -6.66035 0
1.79978 -3.04197 0
23.4105 -54.0756 0
24.1959 -51.9344 0
21.4364 -54.309 0
22.0239 -52.1579 0
24.1959 -51.9344 0
24.9464 -49.6001 0
22.0239 -52.1579 0
22.5863 -49.8135 0
21.4364 -54.309 0
22.0239 -52.1579 0
19.5893 -54.4732 0
19.9781 -52.3156 0
22.0239 -52.1579 0
22.5863 -49.8135 0
19.9781 -52.3156 0
20.3515 -49.9645 0
24.9464 -49.6001 0
25.6611 -47.0822 0
22.5863 -49.8135 0
23.1226 -47.2851 0
25.6611 -47.0822 0
26.3391 -44.3899 0
23.1226 -47.2851 0
23.6316 -44.582 0
22.5863 -49.8135 0
23.1226 -47.2851 0
20.3515 -49.9645 0
20.7085 -47.4291 0
23.1226 -47.2851 0
23.6316 -44.582 0
20.7085 -47.4291 0
21.0479 -44.7183 0
19.5893 -54.4732 0
19.9781 -52.3156 0
17.8228 -54.5679 0
18.0127 -52.4071 0
19.9781 -52.3156 0
20.3515 -49.9645 0
18.0127 -52.4071 0
18.1965 -50.0528 0
17.8228 -54.5679 0
18.0127 -52.4071 0
16.0906 -54.5943 0
16.0828 -52.4333 0
18.0127 -52.4071 0
18.1965 -50.0528 0
16.0828 -52.4333 0
16.0776 -50.079 0
20.3515 -49.9645 0
20.7085 -47.4291 0
18.1965 -50.0528 0
18.3733 -47.5136 0
20.7085 -47.4291 0
21.0479 -44.7183 0
18.3733 -47.5136 0
18.542 -44.7986 0
18.1965 -50.0528 0
18.3733 -47.5136 0
16.0776 -50.079 0
16.0745 -47.5394 0
18.3733 -47.5136 0
18.542 -44.7986 0
16.0745 -47.5394 0
16.0727 -44.8234 0
26.3391 -44.3899 0
26.9788 -41.533 0
23.6316 -44.582 0
24.1123 -41.7137 0
26.9788 -41.533 0
27.5787 -38.5214 0
24.1123 -41.7137 0
24.5631 -38.6902 0
23.6316 -44.582 0
24.1123 -41.7137 0
21.0479 -44.7183 0
21.3685 -41.8418 0
24.1123 -41.7137 0
24.5631 -38.6902 0
21.3685 -41.8418 0
21.6689 -38.8094 0
27.5787 -38.5214 0
28.1373 -35.366 0
24.5631 -38.6902 0
24.9829 -35.5223 0
28.1373 -35.366 0
28.6532 -32.078 0
24.9829 -35.5223 0
25.3703 -32.2214 0
24.5631 -38.6902 0
24.9829 -35.5223 0
21.6689 -38.8094 0
21.9478 -35.6317 0
24.9829 -35.5223 0
25.3703 -32.2214 0
21.9478 -35.6317 0
22.2034 -32.3201 0
21.0479 -44.7183 0
21.3685 -41.8418 0
18.542 -44.7986 0
18.7017 -41.9169 0
21.3685 -41.8418 0
21.6689 -38.8094 0
18.7017 -41.9169 0
18.8511 -38.8785 0
18.542 -44.7986 0
18.7017 -41.9169 0
16.0727 -44.8234 0
16.0714 -41.9399 0
18.7017 -41.9169 0
18.8511 -38.8785 0
16.0714 -41.9399 0
16.0698 -38.8985 0
21.6689 -38.8094 0
21.9478 -35.6317 0
18.8511 -38.8785 0
18.9887 -35.6935 0
21.9478 -35.6317 0
22.2034 -32.3201 0
18.9887 -35.6935 0
19.1124 -32.3732 0
18.8511 -38.8785 0
18.9887 -35.6935 0
16.0698 -38.8985 0
16.0667 -35.7094 0
18.9887 -35.6935 0
19.1124 -32.3732 0
16.0667 -35.7094 0
16.0606 -32.3832 0
16.0906 -54.5943 0
16.0828 -52.4333 0
14.3507 -54.5541 0
14.1479 -52.3958 0
16.0828 -52.4333 0
16.0776 -50.079 0
14.1479 -52.3958 0
13.9557 -50.0444 0
14.3507 -54.5541 0
14.1479 -52.3958 0
12.5648 -54.4492 0
12.1701 -52.2962 0
14.1479 -52.3958 0
13.9557 -50.0444 0
12.1701 -52.2962 0
11.7931 -49.9501 0
16.0776 -50.079 0
16.0745 -47.5394 0
13.9557 -50.0444 0
13.7739 -47.5075 0
16.0745 -47.5394 0
16.0727 -44.8234 0
13.7739 -47.5075 0
13.6023 -44.7936 0
13.9557 -50.0444 0
13.7739 -47.5075 0
11.7931 -49.9501 0
11.4343 -47.4186 0
13.7739 -47.5075 0
13.6023 -44.7936 0
11.4343 -47.4186 0
11.094 -44.7098 0
12.5648 -54.4492 0
12.1701 -52.2962 0
10.6965 -54.2811 0
10.1119 -52.1353 0
12.1701 -52.2962 0
11.7931 -49.9501 0
10.1119 -52.1353 0
9.55144 -49.7968 0
10.6965 -54.2811 0
10.1119 -52.1353 0
8.71538 -54.0494 0
7.93816 -51.9126 0
10.1119 -52.1353 0
9.55144 -49.7968 0
7.93816 -51.9126 0
7.19173 -49.5836 0
11.7931 -49.9501 0
11.4343 -47.4186 0
9.55144 -49.7968 0
9.01636 -47.2729 0
11.4343 -47.4186 0
11.094 -44.7098 0
9.01636 -47.2729 0
8.50801 -44.5721 0
9.55144 -49.7968 0
9.01636 -47.2729 0
7.19173 -49.5836 0
6.47833 -47.0699 0
9.01636 -47.2729 0
8.50801 -44.5721 0
6.47833 -47.0699 0
5.80012 -44.3797 0
16.0727 -44.8234 0
16.0714 -41.9399 0
13.6023 -44.7936 0
13.4406 -41.9116 0
16.0714 -41.9399 0
16.0698 -38.8985 0
13.4406 -41.9116 0
13.2888 -38.8709 0
13.6023 -44.7936 0
13.4406 -41.9116 0
11.094 -44.7098 0
10.7729 -41.8327 0
13.4406 -41.9116 0
13.2888 -38.8709 0
10.7729 -41.8327 0
10.4717 -38.7964 0
16.0698 -38.8985 0
16.0667 -35.7094 0
13.2888 -38.8709 0
13.1464 -35.6813 0
16.0667 -35.7094 0
16.0606 -32.3832 0
13.1464 -35.6813 0
13.0129 -32.3534 0
13.2888 -38.8709 0
13.1464 -35.6813 0
10.4717 -38.7964 0
10.1914 -35.6108 0
13.1464 -35.6813 0
13.0129 -32.3534 0
10.1914 -35.6108 0
9.9329 -32.2864 0
11.094 -44.7098 0
10.7729 -41.8327 0
8.50801 -44.5721 0
8.02793 -41.703 0
10.7729 -41.8327 0
10.4717 -38.7964 0
8.02793 -41.703 0
7.57794 -38.6751 0
8.50801 -44.5721 0
8.02793 -41.703 0
5.80012 -44.3797 0
5.15941 -41.5219 0
8.02793 -41.703 0
7.57794 -38.6751 0
5.15941 -41.5219 0
4.55877 -38.5061 0
10.4717 -38.7964 0
10.1914 -35.6108 0
7.57794 -38.6751 0
7.16019 -35.4981 0
10.1914 -35.6108 0
9.9329 -32.2864 0
7.16019 -35.4981 0
6.77735 -32.1827 0
7.57794 -38.6751 0
7.16019 -35.4981 0
4.55877 -38.5061 0
4.00137 -35.3421 0
7.16019 -35.4981 0
6.77735 -32.1827 0
4.00137 -35.3421 0
3.49132 -32.0409 0
15.989 -62.8287 0
16.9979 -62.6788 0
15.989 -63.123 0
16.7197 -62.9713 0
16.9979 -62.6788 0
17.9963 -62.2327 0
16.7197 -62.9713 0
17.4441 -62.5204 0
15.989 -63.123 0
16.7197 -62.9713 0
15.989 -63.349 0
16.4799 -63.1944 0
16.7197 -62.9713 0
17.4441 -62.5204 0
16.4799 -63.1944 0
16.9638 -62.7356 0
17.9963 -62.2327 0
18.9749 -61.5007 0
17.4441 -62.5204 0
18.1569 -61.7811 0
18.9749 -61.5007 0
19.927 -60.4971 0
18.1569 -61.7811 0
18.8539 -60.7688 0
17.4441 -62.5204 0
18.1569 -61.7811 0
16.9638 -62.7356 0
17.4359 -61.9861 0
18.1569 -61.7811 0
18.8539 -60.7688 0
17.4359 -61.9861 0
17.8942 -60.9635 0
15.989 -63.349 0
16.4799 -63.1944 0
15.989 -63.5354 0
16.2641 -63.3742 0
16.4799 -63.1944 0
16.9638 -62.7356 0
16.2641 -63.3742 0
16.5279 -62.8987 0
15.989 -63.5354 0
16.2641 -63.3742 0
15.989 -63.6998 0
16.0604 -63.5255 0
16.2641 -63.3742 0
16.5279 -62.8987 0
16.0604 -63.5255 0
16.1121 -63.0184 0
16.9638 -62.7356 0
17.4359 -61.9861 0
16.5279 -62.8987 0
16.7743 -62.1292 0
17.4359 -61.9861 0
17.8942 -60.9635 0
16.7743 -62.1292 0
17.0036 -61.0889 0
16.5279 -62.8987 0
16.7743 -62.1292 0
16.1121 -63.0184 0
16.1366 -62.214 0
16.7743 -62.1292 0
17.0036 -61.0889 0
16.1366 -62.214 0
16.1391 -61.1465 0
19.927 -60.4971 0
20.8482 -59.238 0
18.8539 -60.7688 0
19.5321 -59.5003 0
20.8482 -59.238 0
21.7364 -57.739 0
19.5321 -59.5003 0
20.1894 -57.9917 0
18.8539 -60.7688 0
19.5321 -59.5003 0
17.8942 -60.9635 0
18.3385 -59.6859 0
19.5321 -59.5003 0
20.1894 -57.9917 0
18.3385 -59.6859 0
18.769 -58.1694 0
21.7364 -57.739 0
22.5906 -56.0141 0
20.1894 -57.9917 0
20.8246 -56.2572 0
22.5906 -56.0141 0
23.4105 -54.0756 0
20.8246 -56.2572 0
21.4364 -54.309 0
20.1894 -57.9917 0
20.8246 -56.2572 0
18.769 -58.1694 0
19.186 -56.4279 0
20.8246 -56.2572 0
21.4364 -54.309 0
19.186 -56.4279 0
19.5893 -54.4732 0
17.8942 -60.9635 0
18.3385 -59.6859 0
17.0036 -61.0889 0
17.2199 -59.7983 0
18.3385 -59.6859 0
18.769 -58.1694 0
17.2199 -59.7983 0
17.4269 -58.2733 0
17.0036 -61.0889 0
17.2199 -59.7983 0
16.1391 -61.1465 0
16.1291 -59.8387 0
17.2199 -59.7983 0
17.4269 -58.2733 0
16.1291 -59.8387 0
16.1149 -58.3047 0
18.769 -58.1694 0
19.186 -56.4279 0
17.4269 -58.2733 0
17.6276 -56.5264 0
19.186 -56.4279 0
19.5893 -54.4732 0
17.6276 -56.5264 0
17.8228 -54.5679 0
17.4269 -58.2733 0
17.6276 -56.5264 0
16.1149 -58.3047 0
16.1014 -56.554 0
17.6276 -56.5264 0
17.8228 -54.5679 0
16.1014 -56.554 0
16.0906 -54.5943 0
15.989 -63.6998 0
16.0604 -63.5255 0
15.989 -63.8518 0
15.8577 -63.6522 0
16.0604 -63.5255 0
16.1121 -63.0184 0
15.8577 -63.6522 0
15.6929 -63.0899 0
15.989 -63.8518 0
15.8577 -63.6522 0
15.989 -63.9948 0
15.6405 -63.7477 0
15.8577 -63.6522 0
15.6929 -63.0899 0
15.6405 -63.7477 0
15.2429 -63.0929 0
16.1121 -63.0184 0
16.1366 -62.214 0
15.6929 -63.0899 0
15.4888 -62.233 0
16.1366 -62.214 0
16.1391 -61.1465 0
15.4888 -62.233 0
15.2591 -61.1305 0
15.6929 -63.0899 0
15.4888 -62.233 0
15.2429 -63.0929 0
14.7891 -62.165 0
15.4888 -62.233 0
15.2591 -61.1305 0
14.7891 -62.165 0
14.317 -61.0302 0
15.989 -63.9948 0
15.6405 -63.7477 0
15.989 -64.1403 0
15.3985 -63.7848 0
15.6405 -63.7477 0
15.2429 -63.0929 0
15.3985 -63.7848 0
14.6986 -62.9712 0
15.989 -64.1403 0
15.3985 -63.7848 0
15.989 -64.205 0
14.8875 -63.6779 0
15.3985 -63.7848 0
14.6986 -62.9712 0
14.8875 -63.6779 0
13.8931 -62.6945 0
15.2429 -63.0929 0
14.7891 -62.165 0
14.6986 -62.9712 0
13.9652 -61.9866 0
14.7891 -62.165 0
14.317 -61.0302 0
13.9652 -61.9866 0
13.2632 -60.8439 0
14.6986 -62.9712 0
13.9652 -61.9866 0
13.8931 -62.6945 0
12.9754 -61.7219 0
13.9652 -61.9866 0
13.2632 -60.8439 0
12.9754 -61.7219 0
12.082 -60.5821 0
16.1391 -61.1465 0
16.1291 -59.8387 0
15.2591 -61.1305 0
15.0218 -59.8048 0
16.1291 -59.8387 0
16.1149 -58.3047 0
15.0218 -59.8048 0
14.7886 -58.264 0
15.2591 -61.1305 0
15.0218 -59.8048 0
14.317 -61.0302 0
13.8542 -59.6942 0
15.0218 -59.8048 0
14.7886 -58.264 0
13.8542 -59.6942 0
13.4071 -58.1518 0
16.1149 -58.3047 0
16.1014 -56.554 0
14.7886 -58.264 0
14.5644 -56.5121 0
16.1014 -56.554 0
16.0906 -54.5943 0
14.5644 -56.5121 0
14.3507 -54.5541 0
14.7886 -58.264 0
14.5644 -56.5121 0
13.4071 -58.1518 0
12.9771 -56.4027 0
14.5644 -56.5121 0
14.3507 -54.5541 0
12.9771 -56.4027 0
12.5648 -54.4492 0
14.317 -61.0302 0
13.8542 -59.6942 0
13.2632 -60.8439 0
12.5873 -59.5085 0
13.8542 -59.6942 0
13.4071 -58.1518 0
12.5873 -59.5085 0
11.9347 -57.9708 0
13.2632 -60.8439 0
12.5873 -59.5085 0
12.082 -60.5821 0
11.207 -59.2535 0
12.5873 -59.5085 0
11.9347 -57.9708 0
11.207 -59.2535 0
10.3525 -57.7229 0
13.4071 -58.1518 0
12.9771 -56.4027 0
11.9347 -57.9708 0
11.3044 -56.2277 0
12.9771 -56.4027 0
12.5648 -54.4492 0
11.3044 -56.2277 0
10.6965 -54.2811 0
11.9347 -57.9708 0
11.3044 -56.2277 0
10.3525 -57.7229 0
9.52102 -55.9876 0
11.3044 -56.2277 0
10.6965 -54.2811 0
9.52102 -55.9876 0
8.71538 -54.0494 0
8.56755 -54.0756 0
9.38745 -56.0141 0
10.5417 -54.309 0
11.1535 -56.2572 0
9.38745 -56.0141 0
10.2417 -57.739 0
11.1535 -56.2572 0
11.7886 -57.9917 0
10.5417 -54.309 0
11.1535 -56.2572 0
12.3888 -54.4732 0
12.792 -56.4279 0
11.1535 -56.2572 0
11.7886 -57.9917 0
12.792 -56.4279 0
13.2091 -58.1694 0
10.2417 -57.739 0
11.1298 -59.238 0
11.7886 -57.9917 0
12.446 -59.5003 0
11.1298 -59.238 0
12.0511 -60.4971 0
12.446 -59.5003 0
13.1242 -60.7688 0
11.7886 -57.9917 0
12.446 -59.5003 0
13.2091 -58.1694 0
13.6396 -59.6859 0
12.446 -59.5003 0
13.1242 -60.7688 0
13.6396 -59.6859 0
14.0838 -60.9635 0
12.3888 -54.4732 0
12.792 -56.4279 0
14.1552 -54.5679 0
14.3505 -56.5264 0
12.792 -56.4279 0
13.2091 -58.1694 0
14.3505 -56.5264 0
14.5511 -58.2733 0
14.1552 -54.5679 0
14.3505 -56.5264 0
15.8875 -54.5943 0
15.8767 -56.554 0
14.3505 -56.5264 0
14.5511 -58.2733 0
15.8767 -56.554 0
15.8632 -58.3047 0
13.2091 -58.1694 0
13.6396 -59.6859 0
14.5511 -58.2733 0
14.7582 -59.7983 0
13.6396 -59.6859 0
14.0838 -60.9635 0
14.7582 -59.7983 0
14.9744 -61.0889 0
14.5511 -58.2733 0
14.7582 -59.7983 0
15.8632 -58.3047 0
15.849 -59.8387 0
14.7582 -59.7983 0
14.9744 -61.0889 0
15.849 -59.8387 0
15.839 -61.1465 0
12.0511 -60.4971 0
13.0032 -61.5007 0
13.1242 -60.7688 0
13.8212 -61.7811 0
13.0032 -61.5007 0
13.9818 -62.2327 0
13.8212 -61.7811 0
14.534 -62.5204 0
13.1242 -60.7688 0
13.8212 -61.7811 0
14.0838 -60.9635 0
14.5421 -61.9861 0
13.8212 -61.7811 0
14.534 -62.5204 0
14.5421 -61.9861 0
15.0143 -62.7356 0
13.9818 -62.2327 0
14.9801 -62.6788 0
14.534 -62.5204 0
15.2584 -62.9713 0
14.9801 -62.6788 0
15.989 -62.8287 0
15.2584 -62.9713 0
15.989 -63.123 0
14.534 -62.5204 0
15.2584 -62.9713 0
15.0143 -62.7356 0
15.4982 -63.1944 0
15.2584 -62.9713 0
15.989 -63.123 0
15.4982 -63.1944 0
15.989 -63.349 0
14.0838 -60.9635 0
14.5421 -61.9861 0
14.9744 -61.0889 0
15.2038 -62.1292 0
14.5421 -61.9861 0
15.0143 -62.7356 0
15.2038 -62.1292 0
15.4502 -62.8987 0
14.9744 -61.0889 0
15.2038 -62.1292 0
15.839 -61.1465 0
15.8414 -62.214 0
15.2038 -62.1292 0
15.4502 -62.8987 0
15.8414 -62.214 0
15.866 -63.0184 0
15.0143 -62.7356 0
15.4982 -63.1944 0
15.4502 -62.8987 0
15.7139 -63.3742 0
15.4982 -63.1944 0
15.989 -63.349 0
15.7139 -63.3742 0
15.989 -63.5354 0
15.4502 -62.8987 0
15.7139 -63.3742 0
15.866 -63.0184 0
15.9177 -63.5255 0
15.7139 -63.3742 0
15.989 -63.5354 0
15.9177 -63.5255 0
15.989 -63.6998 0
15.8875 -54.5943 0
15.8767 -56.554 0
17.6273 -54.5541 0
17.4136 -56.5121 0
15.8767 -56.554 0
15.8632 -58.3047 0
17.4136 -56.5121 0
17.1894 -58.264 0
17.6273 -54.5541 0
17.4136 -56.5121 0
19.4133 -54.4492 0
19.0009 -56.4027 0
17.4136 -56.5121 0
17.1894 -58.264 0
19.0009 -56.4027 0
18.571 -58.1518 0
15.8632 -58.3047 0
15.849 -59.8387 0
17.1894 -58.264 0
16.9563 -59.8048 0
15.849 -59.8387 0
15.839 -61.1465 0
16.9563 -59.8048 0
16.719 -61.1305 0
17.1894 -58.264 0
16.9563 -59.8048 0
18.571 -58.1518 0
18.1239 -59.6942 0
16.9563 -59.8048 0
16.719 -61.1305 0
18.1239 -59.6942 0
17.6611 -61.0302 0
19.4133 -54.4492 0
19.0009 -56.4027 0
21.2815 -54.2811 0
20.6737 -56.2277 0
19.0009 -56.4027 0
18.571 -58.1518 0
20.6737 -56.2277 0
20.0434 -57.9708 0
21.2815 -54.2811 0
20.6737 -56.2277 0
23.2627 -54.0494 0
22.4571 -55.9876 0
20.6737 -56.2277 0
20.0434 -57.9708 0
22.4571 -55.9876 0
21.6256 -57.7229 0
18.571 -58.1518 0
18.1239 -59.6942 0
20.0434 -57.9708 0
19.3907 -59.5085 0
18.1239 -59.6942 0
17.6611 -61.0302 0
19.3907 -59.5085 0
18.7149 -60.8439 0
20.0434 -57.9708 0
19.3907 -59.5085 0
21.6256 -57.7229 0
20.771 -59.2535 0
19.3907 -59.5085 0
18.7149 -60.8439 0
20.771 -59.2535 0
19.8961 -60.5821 0
15.839 -61.1465 0
15.8414 -62.214 0
16.719 -61.1305 0
16.4893 -62.233 0
15.8414 -62.214 0
15.866 -63.0184 0
16.4893 -62.233 0
16.2852 -63.0899 0
16.719 -61.1305 0
16.4893 -62.233 0
17.6611 -61.0302 0
17.1889 -62.165 0
16.4893 -62.233 0
16.2852 -63.0899 0
17.1889 -62.165 0
16.7352 -63.0929 0
15.866 -63.0184 0
15.9177 -63.5255 0
16.2852 -63.0899 0
16.1203 -63.6522 0
15.9177 -63.5255 0
15.989 -63.6998 0
16.1203 -63.6522 0
15.989 -63.8518 0
16.2852 -63.0899 0
16.1203 -63.6522 0
16.7352 -63.0929 0
16.3376 -63.7477 0
16.1203 -63.6522 0
15.989 -63.8518 0
16.3376 -63.7477 0
15.989 -63.9948 0
17.6611 -61.0302 0
17.1889 -62.165 0
18.7149 -60.8439 0
18.0128 -61.9866 0
17.1889 -62.165 0
16.7352 -63.0929 0
18.0128 -61.9866 0
17.2794 -62.9712 0
18.7149 -60.8439 0
18.0128 -61.9866 0
19.8961 -60.5821 0
19.0026 -61.7219 0
18.0128 -61.9866 0
17.2794 -62.9712 0
19.0026 -61.7219 0
18.085 -62.6945 0
16.7352 -63.0929 0
16.3376 -63.7477 0
17.2794 -62.9712 0
16.5796 -63.7848 0
16.3376 -63.7477 0
15.989 -63.9948 0
16.5796 -63.7848 0
15.989 -64.1403 0
17.2794 -62.9712 0
16.5796 -63.7848 0
18.085 -62.6945 0
17.0905 -63.6779 0
16.5796 -63.7848 0
15.989 -64.1403 0
17.0905 -63.6779 0
15.989 -64.205 0
3.32491 -32.078 0
3.84079 -35.366 0
6.60775 -32.2214 0
6.99515 -35.5223 0
3.84079 -35.366 0
4.39933 -38.5214 0
6.99515 -35.5223 0
7.41493 -38.6902 0
6.60775 -32.2214 0
6.99515 -35.5223 0
9.77471 -32.3201 0
10.0302 -35.6317 0
6.99515 -35.5223 0
7.41493 -38.6902 0
10.0302 -35.6317 0
10.3091 -38.8094 0
4.39933 -38.5214 0
4.99926 -41.533 0
7.41493 -38.6902 0
7.86581 -41.7137 0
4.99926 -41.533 0
5.639 -44.3899 0
7.86581 -41.7137 0
8.34643 -44.582 0
7.41493 -38.6902 0
7.86581 -41.7137 0
10.3091 -38.8094 0
10.6096 -41.8418 0
7.86581 -41.7137 0
8.34643 -44.582 0
10.6096 -41.8418 0
10.9302 -44.7183 0
9.77471 -32.3201 0
10.0302 -35.6317 0
12.8657 -32.3732 0
12.9894 -35.6935 0
10.0302 -35.6317 0
10.3091 -38.8094 0