# vtk DataFile Version 3.0
#This file was generated by the deal.II library on 2020/9/2 at 8:40:13
ASCII
DATASET UNSTRUCTURED_GRID

POINTS 1536 double
5 0 0
5.125 0 0
5 0.125 0
5.125 0.125 0
5.125 0 0
5.25 0 0
5.125 0.125 0
5.25 0.125 0
5 0.125 0
5.125 0.125 0
5 0.25 0
5.125 0.25 0
5.125 0.125 0
5.25 0.125 0
5.125 0.25 0
5.25 0.25 0
5.25 0 0
5.375 0 0
5.25 0.125 0
5.375 0.125 0
5.375 0 0
5.5 0 0
5.375 0.125 0
5.5 0.125 0
5.25 0.125 0
5.375 0.125 0
5.25 0.25 0
5.375 0.25 0
5.375 0.125 0
5.5 0.125 0
5.375 0.25 0
5.5 0.25 0
5 0.25 0
5.125 0.25 0
5 0.375 0
5.125 0.375 0
5.125 0.25 0
5.25 0.25 0
5.125 0.375 0
5.25 0.375 0
5 0.375 0
5.125 0.375 0
5 0.5 0
5.125 0.5 0
5.125 0.375 0
5.25 0.375 0
5.125 0.5 0
5.25 0.5 0
5.25 0.25 0
5.375 0.25 0
5.25 0.375 0
5.375 0.375 0
5.375 0.25 0
5.5 0.25 0
5.375 0.375 0
5.5 0.375 0
5.25 0.375 0
5.375 0.375 0
5.25 0.5 0
5.375 0.5 0
5.375 0.375 0
5.5 0.375 0
5.375 0.5 0
5.5 0.5 0
5.5 0 0
5.625 0 0
5.5 0.125 0
5.625 0.125 0
5.625 0 0
5.75 0 0
5.625 0.125 0
5.75 0.125 0
5.5 0.125 0
5.625 0.125 0
5.5 0.25 0
5.625 0.25 0
5.625 0.125 0
5.75 0.125 0
5.625 0.25 0
5.75 0.25 0
5.75 0 0
5.875 0 0
5.75 0.125 0
5.875 0.125 0
5.875 0 0
6 0 0
5.875 0.125 0
6 0.125 0
5.75 0.125 0
5.875 0.125 0
5.75 0.25 0
5.875 0.25 0
5.875 0.125 0
6 0.125 0
5.875 0.25 0
6 0.25 0
5.5 0.25 0
5.625 0.25 0
5.5 0.375 0
5.625 0.375 0
5.625 0.25 0
5.75 0.25 0
5.625 0.375 0
5.75 0.375 0
5.5 0.375 0
5.625 0.375 0
5.5 0.5 0
5.625 0.5 0
5.625 0.375 0
5.75 0.375 0
5.625 0.5 0
5.75 0.5 0
5.75 0.25 0
5.875 0.25 0
5.75 0.375 0
5.875 0.375 0
5.875 0.25 0
6 0.25 0
5.875 0.375 0
6 0.375 0
5.75 0.375 0
5.875 0.375 0
5.75 0.5 0
5.875 0.5 0
5.875 0.375 0
6 0.375 0
5.875 0.5 0
6 0.5 0
5 0.5 0
5.125 0.5 0
5 0.625 0
5.125 0.625 0
5.125 0.5 0
5.25 0.5 0
5.125 0.625 0
5.25 0.625 0
5 0.625 0
5.125 0.625 0
5 0.75 0
5.125 0.75 0
5.125 0.625 0
5.25 0.625 0
5.125 0.75 0
5.25 0.75 0
5.25 0.5 0
5.375 0.5 0
5.25 0.625 0
5.375 0.625 0
5.375 0.5 0
5.5 0.5 0
5.375 0.625 0
5.5 0.625 0
5.25 0.625 0
5.375 0.625 0
5.25 0.75 0
5.375 0.75 0
5.375 0.625 0
5.5 0.625 0
5.375 0.75 0
5.5 0.75 0
5 0.75 0
5.125 0.75 0
5 0.875 0
5.125 0.875 0
5.125 0.75 0
5.25 0.75 0
5.125 0.875 0
5.25 0.875 0
5 0.875 0
5.125 0.875 0
5 1 0
5.125 1 0
5.125 0.875 0
5.25 0.875 0
5.125 1 0
5.25 1 0
5.25 0.75 0
5.375 0.75 0
5.25 0.875 0
5.375 0.875 0
5.375 0.75 0
5.5 0.75 0
5.375 0.875 0
5.5 0.875 0
5.25 0.875 0
5.375 0.875 0
5.25 1 0
5.375 1 0
5.375 0.875 0
5.5 0.875 0
5.375 1 0
5.5 1 0
5.5 0.5 0
5.625 0.5 0
5.5 0.625 0
5.625 0.625 0
5.625 0.5 0
5.75 0.5 0
5.625 0.625 0
5.75 0.625 0
5.5 0.625 0
5.625 0.625 0
5.5 0.75 0
5.625 0.75 0
5.625 0.625 0
5.75 0.625 0
5.625 0.75 0
5.75 0.75 0
5.75 0.5 0
5.875 0.5 0
5.75 0.625 0
5.875 0.625 0
5.875 0.5 0
6 0.5 0
5.875 0.625 0
6 0.625 0
5.75 0.625 0
5.875 0.625 0
5.75 0.75 0
5.875 0.75 0
5.875 0.625 0
6 0.625 0
5.875 0.75 0
6 0.75 0
5.5 0.75 0
5.625 0.75 0
5.5 0.875 0
5.625 0.875 0
5.625 0.75 0
5.75 0.75 0
5.625 0.875 0
5.75 0.875 0
5.5 0.875 0
5.625 0.875 0
5.5 1 0
5.625 1 0
5.625 0.875 0
5.75 0.875 0
5.625 1 0
5.75 1 0
5.75 0.75 0
5.875 0.75 0
5.75 0.875 0
5.875 0.875 0
5.875 0.75 0
6 0.75 0
5.875 0.875 0
6 0.875 0
5.75 0.875 0
5.875 0.875 0
5.75 1 0
5.875 1 0
5.875 0.875 0
6 0.875 0
5.875 1 0
6 1 0
4 0 0
4.125 0 0
4 0.125 0
4.125 0.125 0
4.125 0 0
4.25 0 0
4.125 0.125 0
4.25 0.125 0
4 0.125 0
4.125 0.125 0
4 0.25 0
4.125 0.25 0
4.125 0.125 0
4.25 0.125 0
4.125 0.25 0
4.25 0.25 0
4.25 0 0
4.375 0 0
4.25 0.125 0
4.375 0.125 0
4.375 0 0
4.5 0 0
4.375 0.125 0
4.5 0.125 0
4.25 0.125 0
4.375 0.125 0
4.25 0.25 0
4.375 0.25 0
4.375 0.125 0
4.5 0.125 0
4.375 0.25 0
4.5 0.25 0
4 0.25 0
4.125 0.25 0
4 0.375 0
4.125 0.375 0
4.125 0.25 0
4.25 0.25 0
4.125 0.375 0
4.25 0.375 0
4 0.375 0
4.125 0.375 0
4 0.5 0
4.125 0.5 0
4.125 0.375 0
4.25 0.375 0
4.125 0.5 0
4.25 0.5 0
4.25 0.25 0
4.375 0.25 0
4.25 0.375 0
4.375 0.375 0
4.375 0.25 0
4.5 0.25 0
4.375 0.375 0
4.5 0.375 0
4.25 0.375 0
4.375 0.375 0
4.25 0.5 0
4.375 0.5 0
4.375 0.375 0
4.5 0.375 0
4.375 0.5 0
4.5 0.5 0
4.5 0 0
4.625 0 0
4.5 0.125 0
4.625 0.125 0
4.625 0 0
4.75 0 0
4.625 0.125 0
4.75 0.125 0
4.5 0.125 0
4.625 0.125 0
4.5 0.25 0
4.625 0.25 0
4.625 0.125 0
4.75 0.125 0
4.625 0.25 0
4.75 0.25 0
4.75 0 0
4.875 0 0
4.75 0.125 0
4.875 0.125 0
4.875 0 0
5 0 0
4.875 0.125 0
5 0.125 0
4.75 0.125 0
4.875 0.125 0
4.75 0.25 0
4.875 0.25 0
4.875 0.125 0
5 0.125 0
4.875 0.25 0
5 0.25 0
4.5 0.25 0
4.625 0.25 0
4.5 0.375 0
4.625 0.375 0
4.625 0.25 0
4.75 0.25 0
4.625 0.375 0
4.75 0.375 0
4.5 0.375 0
4.625 0.375 0
4.5 0.5 0
4.625 0.5 0
4.625 0.375 0
4.75 0.375 0
4.625 0.5 0
4.75 0.5 0
4.75 0.25 0
4.875 0.25 0
4.75 0.375 0
4.875 0.375 0
4.875 0.25 0
5 0.25 0
4.875 0.375 0
5 0.375 0
4.75 0.375 0
4.875 0.375 0
4.75 0.5 0
4.875 0.5 0
4.875 0.375 0
5 0.375 0
4.875 0.5 0
5 0.5 0
4 0.5 0
4.125 0.5 0
4 0.625 0
4.125 0.625 0
4.125 0.5 0
4.25 0.5 0
4.125 0.625 0
4.25 0.625 0
4 0.625 0
4.125 0.625 0
4 0.75 0
4.125 0.75 0
4.125 0.625 0
4.25 0.625 0
4.125 0.75 0
4.25 0.75 0
4.25 0.5 0
4.375 0.5 0
4.25 0.625 0
4.375 0.625 0
4.375 0.5 0
4.5 0.5 0
4.375 0.625 0
4.5 0.625 0
4.25 0.625 0
4.375 0.625 0
4.25 0.75 0
4.375 0.75 0
4.375 0.625 0
4.5 0.625 0
4.375 0.75 0
4.5 0.75 0
4 0.75 0
4.125 0.75 0
4 0.875 0
4.125 0.875 0
4.125 0.75 0
4.25 0.75 0
4.125 0.875 0
4.25 0.875 0
4 0.875 0
4.125 0.875 0
4 1 0
4.125 1 0
4.125 0.875 0
4.25 0.875 0
4.125 1 0
4.25 1 0
4.25 0.75 0
4.375 0.75 0
4.25 0.875 0
4.375 0.875 0
4.375 0.75 0
4.5 0.75 0
4.375 0.875 0
4.5 0.875 0
4.25 0.875 0
4.375 0.875 0
4.25 1 0
4.375 1 0
4.375 0.875 0
4.5 0.875 0
4.375 1 0
4.5 1 0
4.5 0.5 0
4.625 0.5 0
4.5 0.625 0
4.625 0.625 0
4.625 0.5 0
4.75 0.5 0
4.625 0.625 0
4.75 0.625 0
4.5 0.625 0
4.625 0.625 0
4.5 0.75 0
4.625 0.75 0
4.625 0.625 0
4.75 0.625 0
4.625 0.75 0
4.75 0.75 0
4.75 0.5 0
4.875 0.5 0
4.75 0.625 0
4.875 0.625 0
4.875 0.5 0
5 0.5 0
4.875 0.625 0
5 0.625 0
4.75 0.625 0
4.875 0.625 0
4.75 0.75 0
4.875 0.75 0
4.875 0.625 0
5 0.625 0
4.875 0.75 0
5 0.75 0
4.5 0.75 0
4.625 0.75 0
4.5 0.875 0
4.625 0.875 0
4.625 0.75 0
4.75 0.75 0
4.625 0.875 0
4.75 0.875 0
4.5 0.875 0
4.625 0.875 0
4.5 1 0
4.625 1 0
4.625 0.875 0
4.75 0.875 0
4.625 1 0
4.75 1 0
4.75 0.75 0
4.875 0.75 0
4.75 0.875 0
4.875 0.875 0
4.875 0.75 0
5 0.75 0
4.875 0.875 0
5 0.875 0
4.75 0.875 0
4.875 0.875 0
4.75 1 0
4.875 1 0
4.875 0.875 0
5 0.875 0
4.875 1 0
5 1 0
3 0 0
3.125 0 0
3 0.125 0
3.125 0.125 0
3.125 0 0
3.25 0 0
3.125 0.125 0
3.25 0.125 0
3 0.125 0
3.125 0.125 0
3 0.25 0
3.125 0.25 0
3.125 0.125 0
3.25 0.125 0
3.125 0.25 0
3.25 0.25 0
3.25 0 0
3.375 0 0
3.25 0.125 0
3.375 0.125 0
3.375 0 0
3.5 0 0
3.375 0.125 0
3.5 0.125 0
3.25 0.125 0
3.375 0.125 0
3.25 0.25 0
3.375 0.25 0
3.375 0.125 0
3.5 0.125 0
3.375 0.25 0
3.5 0.25 0
3 0.25 0
3.125 0.25 0
3 0.375 0
3.125 0.375 0
3.125 0.25 0
3.25 0.25 0
3.125 0.375 0
3.25 0.375 0
3 0.375 0
3.125 0.375 0
3 0.5 0
3.125 0.5 0
3.125 0.375 0
3.25 0.375 0
3.125 0.5 0
3.25 0.5 0
3.25 0.25 0
3.375 0.25 0
3.25 0.375 0
3.375 0.375 0
3.375 0.25 0
3.5 0.25 0
3.375 0.375 0
3.5 0.375 0
3.25 0.375 0
3.375 0.375 0
3.25 0.5 0
3.375 0.5 0
3.375 0.375 0
3.5 0.375 0
3.375 0.5 0
3.5 0.5 0
3.5 0 0
3.625 0 0
3.5 0.125 0
3.625 0.125 0
3.625 0 0
3.75 0 0
3.625 0.125 0
3.75 0.125 0
3.5 0.125 0
3.625 0.125 0
3.5 0.25 0
3.625 0.25 0
3.625 0.125 0
3.75 0.125 0
3.625 0.25 0
3.75 0.25 0
3.75 0 0
3.875 0 0
3.75 0.125 0
3.875 0.125 0
3.875 0 0
4 0 0
3.875 0.125 0
4 0.125 0
3.75 0.125 0
3.875 0.125 0
3.75 0.25 0
3.875 0.25 0
3.875 0.125 0
4 0.125 0
3.875 0.25 0
4 0.25 0
3.5 0.25 0
3.625 0.25 0
3.5 0.375 0
3.625 0.375 0
3.625 0.25 0
3.75 0.25 0
3.625 0.375 0
3.75 0.375 0
3.5 0.375 0
3.625 0.375 0
3.5 0.5 0
3.625 0.5 0
3.625 0.375 0
3.75 0.375 0
3.625 0.5 0
3.75 0.5 0
3.75 0.25 0
3.875 0.25 0
3.75 0.375 0
3.875 0.375 0
3.875 0.25 0
4 0.25 0
3.875 0.375 0
4 0.375 0
3.75 0.375 0
3.875 0.375 0
3.75 0.5 0
3.875 0.5 0
3.875 0.375 0
4 0.375 0
3.875 0.5 0
4 0.5 0
3 0.5 0
3.125 0.5 0
3 0.625 0
3.125 0.625 0
3.125 0.5 0
3.25 0.5 0
3.125 0.625 0
3.25 0.625 0
3 0.625 0
3.125 0.625 0
3 0.75 0
3.125 0.75 0
3.125 0.625 0
3.25 0.625 0
3.125 0.75 0
3.25 0.75 0
3.25 0.5 0
3.375 0.5 0
3.25 0.625 0
3.375 0.625 0
3.375 0.5 0
3.5 0.5 0
3.375 0.625 0
3.5 0.625 0
3.25 0.625 0
3.375 0.625 0
3.25 0.75 0
3.375 0.75 0
3.375 0.625 0
3.5 0.625 0
3.375 0.75 0
3.5 0.75 0
3 0.75 0
3.125 0.75 0
3 0.875 0
3.125 0.875 0
3.125 0.75 0
3.25 0.75 0
3.125 0.875 0
3.25 0.875 0
3 0.875 0
3.125 0.875 0
3 1 0
3.125 1 0
3.125 0.875 0
3.25 0.875 0
3.125 1 0
3.25 1 0
3.25 0.75 0
3.375 0.75 0
3.25 0.875 0
3.375 0.875 0
3.375 0.75 0
3.5 0.75 0
3.375 0.875 0
3.5 0.875 0
3.25 0.875 0
3.375 0.875 0
3.25 1 0
3.375 1 0
3.375 0.875 0
3.5 0.875 0
3.375 1 0
3.5 1 0
3.5 0.5 0
3.625 0.5 0
3.5 0.625 0
3.625 0.625 0
3.625 0.5 0
3.75 0.5 0
3.625 0.625 0
3.75 0.625 0
3.5 0.625 0
3.625 0.625 0
3.5 0.75 0
3.625 0.75 0
3.625 0.625 0
3.75 0.625 0
3.625 0.75 0
3.75 0.75 0
3.75 0.5 0
3.875 0.5 0
3.75 0.625 0
3.875 0.625 0
3.875 0.5 0
4 0.5 0
3.875 0.625 0
4 0.625 0
3.75 0.625 0
3.875 0.625 0
3.75 0.75 0
3.875 0.75 0
3.875 0.625 0
4 0.625 0
3.875 0.75 0
4 0.75 0
3.5 0.75 0
3.625 0.75 0
3.5 0.875 0
3.625 0.875 0
3.625 0.75 0
3.75 0.75 0
3.625 0.875 0
3.75 0.875 0
3.5 0.875 0
3.625 0.875 0
3.5 1 0
3.625 1 0
3.625 0.875 0
3.75 0.875 0
3.625 1 0
3.75 1 0
3.75 0.75 0
3.875 0.75 0
3.75 0.875 0
3.875 0.875 0
3.875 0.75 0
4 0.75 0
3.875 0.875 0
4 0.875 0
3.75 0.875 0
3.875 0.875 0
3.75 1 0
3.875 1 0
3.875 0.875 0
4 0.875 0
3.875 1 0
4 1 0
2 0 0
2.125 0 0
2 0.125 0
2.125 0.125 0
2.125 0 0
2.25 0 0
2.125 0.125 0
2.25 0.125 0
2 0.125 0
2.125 0.125 0
2 0.25 0
2.125 0.25 0
2.125 0.125 0
2.25 0.125 0
2.125 0.25 0
2.25 0.25 0
2.25 0 0
2.375 0 0
2.25 0.125 0
2.375 0.125 0
2.375 0 0
2.5 0 0
2.375 0.125 0
2.5 0.125 0
2.25 0.125 0
2.375 0.125 0
2.25 0.25 0
2.375 0.25 0
2.375 0.125 0
2.5 0.125 0
2.375 0.25 0
2.5 0.25 0
2 0.25 0
2.125 0.25 0
2 0.375 0
2.125 0.375 0
2.125 0.25 0
2.25 0.25 0
2.125 0.375 0
2.25 0.375 0
2 0.375 0
2.125 0.375 0
2 0.5 0
2.125 0.5 0
2.125 0.375 0
2.25 0.375 0
2.125 0.5 0
2.25 0.5 0
2.25 0.25 0
2.375 0.25 0
2.25 0.375 0
2.375 0.375 0
2.375 0.25 0
[...]
POINT_DATA 1536
VECTORS displacements double
37.1317 -43.1338 0
37.8319 -38.6117 0
32.8006 -43.3416 0
33.324 -38.8089 0
37.8319 -38.6117 0
38.501 -33.9165 0
33.324 -38.8089 0
33.8195 -34.1034 0
32.8006 -43.3416 0
33.324 -38.8089 0
28.8164 -43.4825 0
29.1647 -38.939 0
33.324 -38.8089 0
33.8195 -34.1034 0
29.1647 -38.939 0
29.4883 -34.2209 0
38.501 -33.9165 0
39.144 -29.0532 0
33.8195 -34.1034 0
34.2865 -29.2302 0
39.144 -29.0532 0
39.7708 -24.02 0
34.2865 -29.2302 0
34.7229 -24.1895 0
33.8195 -34.1034 0
34.2865 -29.2302 0
29.4883 -34.2209 0
29.7818 -29.3331 0
34.2865 -29.2302 0
34.7229 -24.1895 0
29.7818 -29.3331 0
30.0376 -24.2719 0
28.8164 -43.4825 0
29.1647 -38.939 0
25.0087 -43.5528 0
25.1769 -38.9986 0
29.1647 -38.939 0
29.4883 -34.2209 0
25.1769 -38.9986 0
25.3256 -34.267 0
25.0087 -43.5528 0
25.1769 -38.9986 0
21.279 -43.5533 0
21.2667 -38.9902 0
25.1769 -38.9986 0
25.3256 -34.267 0
21.2667 -38.9902 0
21.2414 -34.2481 0
29.4883 -34.2209 0
29.7818 -29.3331 0
25.3256 -34.267 0
25.4483 -29.3622 0
29.7818 -29.3331 0
30.0376 -24.2719 0
25.4483 -29.3622 0
25.5328 -24.286 0
25.3256 -34.267 0
25.4483 -29.3622 0
21.2414 -34.2481 0
21.1978 -29.3331 0
25.4483 -29.3622 0
25.5328 -24.286 0
21.1978 -29.3331 0
21.128 -24.2492 0
39.7708 -24.02 0
40.3994 -18.8068 0
34.7229 -24.1895 0
35.1222 -18.9615 0
40.3994 -18.8068 0
41.076 -13.3346 0
35.1222 -18.9615 0
35.4516 -13.5148 0
34.7229 -24.1895 0
35.1222 -18.9615 0
30.0376 -24.2719 0
30.235 -19.0256 0
35.1222 -18.9615 0
35.4516 -13.5148 0
30.235 -19.0256 0
30.3518 -13.511 0
41.076 -13.3346 0
41.8624 -7.58316 0
35.4516 -13.5148 0
35.5679 -7.51309 0
41.8624 -7.58316 0
42.2977 0 0
35.5679 -7.51309 0
35.741 -1.37188 0
35.4516 -13.5148 0
35.5679 -7.51309 0
30.3518 -13.511 0
30.3396 -7.75179 0
35.5679 -7.51309 0
35.741 -1.37188 0
30.3396 -7.75179 0
30.488 -2.33635 0
30.0376 -24.2719 0
30.235 -19.0256 0
25.5328 -24.286 0
25.57 -19.0187 0
30.235 -19.0256 0
30.3518 -13.511 0
25.57 -19.0187 0
25.5174 -13.5814 0
25.5328 -24.286 0
25.57 -19.0187 0
21.128 -24.2492 0
21.0153 -19.0272 0
25.57 -19.0187 0
25.5174 -13.5814 0
21.0153 -19.0272 0
20.9197 -13.7332 0
30.3518 -13.511 0
30.3396 -7.75179 0
25.5174 -13.5814 0
25.5236 -8.14477 0
30.3396 -7.75179 0
30.488 -2.33635 0
25.5236 -8.14477 0
25.646 -3.00535 0
25.5174 -13.5814 0
25.5236 -8.14477 0
20.9197 -13.7332 0
20.9051 -8.49209 0
25.5236 -8.14477 0
25.646 -3.00535 0
20.9051 -8.49209 0
20.9934 -3.53289 0
21.279 -43.5533 0
21.2667 -38.9902 0
17.547 -43.4884 0
17.3548 -38.9208 0
21.2667 -38.9902 0
21.2414 -34.2481 0
17.3548 -38.9208 0
17.1593 -34.1748 0
17.547 -43.4884 0
17.3548 -38.9208 0
13.7309 -43.3659 0
13.3623 -38.802 0
17.3548 -38.9208 0
17.1593 -34.1748 0
13.3623 -38.802 0
13.004 -34.0696 0
21.2414 -34.2481 0
21.1978 -29.3331 0
17.1593 -34.1748 0
16.9558 -29.2644 0
21.1978 -29.3331 0
21.128 -24.2492 0
16.9558 -29.2644 0
16.745 -24.2132 0
17.1593 -34.1748 0
16.9558 -29.2644 0
13.004 -34.0696 0
12.6604 -29.183 0
16.9558 -29.2644 0
16.745 -24.2132 0
12.6604 -29.183 0
12.3531 -24.1712 0
13.7309 -43.3659 0
13.3623 -38.802 0
9.73914 -43.201 0
9.20847 -38.6475 0
13.3623 -38.802 0
13.004 -34.0696 0
9.20847 -38.6475 0
8.71023 -33.9349 0
9.73914 -43.201 0
9.20847 -38.6475 0
5.43328 -42.9939 0
4.77499 -38.4557 0
9.20847 -38.6475 0
8.71023 -33.9349 0
4.77499 -38.4557 0
4.18374 -33.7682 0
13.004 -34.0696 0
12.6604 -29.183 0
8.71023 -33.9349 0
8.26749 -29.0781 0
12.6604 -29.183 0
12.3531 -24.1712 0
8.26749 -29.0781 0
7.90379 -24.1141 0
8.71023 -33.9349 0
8.26749 -29.0781 0
4.18374 -33.7682 0
3.65883 -28.9482 0
8.26749 -29.0781 0
7.90379 -24.1141 0
3.65883 -28.9482 0
3.19726 -24.0094 0
21.128 -24.2492 0
21.0153 -19.0272 0
16.745 -24.2132 0
16.5537 -19.0597 0
21.0153 -19.0272 0
20.9197 -13.7332 0
16.5537 -19.0597 0
16.4294 -13.8781 0
16.745 -24.2132 0
16.5537 -19.0597 0
12.3531 -24.1712 0
12.1185 -19.0838 0
16.5537 -19.0597 0
16.4294 -13.8781 0
12.1185 -19.0838 0
11.9633 -13.9792 0
20.9197 -13.7332 0
20.9051 -8.49209 0
16.4294 -13.8781 0
16.393 -8.76463 0
20.9051 -8.49209 0
20.9934 -3.53289 0
16.393 -8.76463 0
16.4557 -3.93596 0
16.4294 -13.8781 0
16.393 -8.76463 0
11.9633 -13.9792 0
11.9039 -8.95317 0
16.393 -8.76463 0
16.4557 -3.93596 0
11.9039 -8.95317 0
11.9272 -4.17589 0
12.3531 -24.1712 0
12.1185 -19.0838 0
7.90379 -24.1141 0
7.61261 -19.0698 0
12.1185 -19.0838 0
11.9633 -13.9792 0
7.61261 -19.0698 0
7.41125 -14.0094 0
7.90379 -24.1141 0
7.61261 -19.0698 0
3.19726 -24.0094 0
2.83642 -18.9959 0
7.61261 -19.0698 0
7.41125 -14.0094 0
2.83642 -18.9959 0
2.6186 -13.9802 0
11.9633 -13.9792 0
11.9039 -8.95317 0
7.41125 -14.0094 0
7.31559 -9.042 0
11.9039 -8.95317 0
11.9272 -4.17589 0
7.31559 -9.042 0
7.2993 -4.25246 0
7.41125 -14.0094 0
7.31559 -9.042 0
2.6186 -13.9802 0
2.54747 -9.0566 0
7.31559 -9.042 0
7.2993 -4.25246 0
2.54747 -9.0566 0
2.5432 -4.25707 0
30.2798 -72.0625 0
31.2622 -69.2453 0
27.6814 -72.3516 0
28.4062 -69.5243 0
31.2622 -69.2453 0
32.2076 -66.1765 0
28.4062 -69.5243 0
29.1078 -66.4454 0
27.6814 -72.3516 0
28.4062 -69.5243 0
25.4064 -72.5499 0
25.8764 -69.7161 0
28.4062 -69.5243 0
29.1078 -66.4454 0
25.8764 -69.7161 0
26.3372 -66.6311 0
32.2076 -66.1765 0
33.1164 -62.8692 0
29.1078 -66.4454 0
29.7859 -63.1282 0
33.1164 -62.8692 0
33.9896 -59.3353 0
29.7859 -63.1282 0
30.4398 -59.5842 0
29.1078 -66.4454 0
29.7859 -63.1282 0
26.3372 -66.6311 0
26.7875 -63.3076 0
29.7859 -63.1282 0
30.4398 -59.5842 0
26.7875 -63.3076 0
27.2255 -59.7571 0
25.4064 -72.5499 0
25.8764 -69.7161 0
23.3531 -72.6558 0
23.564 -69.8184 0
25.8764 -69.7161 0
26.3372 -66.6311 0
23.564 -69.8184 0
23.7783 -66.7312 0
23.3531 -72.6558 0
23.564 -69.8184 0
21.3771 -72.6714 0
21.3344 -69.8327 0
23.564 -69.8184 0
23.7783 -66.7312 0
21.3344 -69.8327 0
21.305 -66.7467 0
26.3372 -66.6311 0
26.7875 -63.3076 0
23.7783 -66.7312 0
23.9945 -63.4053 0
26.7875 -63.3076 0
27.2255 -59.7571 0
23.9945 -63.4053 0
24.2104 -59.8517 0
23.7783 -66.7312 0
23.9945 -63.4053 0
21.305 -66.7467 0
21.2877 -63.4223 0
23.9945 -63.4053 0
24.2104 -59.8517 0
21.2877 -63.4223 0
21.2804 -59.8691 0
33.9896 -59.3353 0
34.8273 -55.5854 0
30.4398 -59.5842 0
31.0688 -55.8242 0
34.8273 -55.5854 0
35.6301 -51.6292 0
31.0688 -55.8242 0
31.6724 -51.8578 0
30.4398 -59.5842 0
31.0688 -55.8242 0
27.2255 -59.7571 0
27.6493 -55.9901 0
31.0688 -55.8242 0
31.6724 -51.8578 0
27.6493 -55.9901 0
28.0568 -52.0162 0
35.6301 -51.6292 0
36.3981 -47.4757 0
31.6724 -51.8578 0
32.2498 -47.694 0
36.3981 -47.4757 0
37.1317 -43.1338 0
32.2498 -47.694 0
32.8006 -43.3416 0
31.6724 -51.8578 0
32.2498 -47.694 0
28.0568 -52.0162 0
28.4464 -47.8443 0
32.2498 -47.694 0
32.8006 -43.3416 0
28.4464 -47.8443 0
28.8164 -43.4825 0
27.2255 -59.7571 0
27.6493 -55.9901 0
24.2104 -59.8517 0
24.4229 -56.0805 0
27.6493 -55.9901 0
28.0568 -52.0162 0
24.4229 -56.0805 0
24.6287 -52.1013 0
24.2104 -59.8517 0
24.4229 -56.0805 0
21.2804 -59.8691 0
21.2798 -56.0965 0
24.4229 -56.0805 0
24.6287 -52.1013 0
21.2798 -56.0965 0
21.282 -52.1139 0
28.0568 -52.0162 0
28.4464 -47.8443 0
24.6287 -52.1013 0
24.8249 -47.9228 0
28.4464 -47.8443 0
28.8164 -43.4825 0
24.8249 -47.9228 0
25.0087 -43.5528 0
24.6287 -52.1013 0
24.8249 -47.9228 0
21.282 -52.1139 0
21.283 -47.9302 0
24.8249 -47.9228 0
25.0087 -43.5528 0
21.283 -47.9302 0
21.279 -43.5533 0
21.3771 -72.6714 0
21.3344 -69.8327 0
19.3743 -72.6017 0
19.0887 -69.7639 0
21.3344 -69.8327 0
21.305 -66.7467 0
19.0887 -69.7639 0
18.8231 -66.6821 0
19.3743 -72.6017 0
19.0887 -69.7639 0
17.2498 -72.453 0
16.734 -69.6191 0
19.0887 -69.7639 0
18.8231 -66.6821 0
16.734 -69.6191 0
16.2423 -66.5441 0
21.305 -66.7467 0
21.2877 -63.4223 0
18.8231 -66.6821 0
18.5771 -63.3627 0
21.2877 -63.4223 0
21.2804 -59.8691 0
18.5771 -63.3627 0
18.3487 -59.8132 0
18.8231 -66.6821 0
18.5771 -63.3627 0
16.2423 -66.5441 0
15.7744 -63.2322 0
18.5771 -63.3627 0
18.3487 -59.8132 0
15.7744 -63.2322 0
15.3291 -59.6891 0
17.2498 -72.453 0
16.734 -69.6191 0
14.8809 -72.2353 0
14.151 -69.4079 0
16.734 -69.6191 0
16.2423 -66.5441 0
14.151 -69.4079 0
13.4456 -66.3412 0
14.8809 -72.2353 0
14.151 -69.4079 0
12.2464 -71.9483 0
11.2831 -69.1292 0
14.151 -69.4079 0
13.4456 -66.3412 0
11.2831 -69.1292 0
10.346 -66.0713 0
16.2423 -66.5441 0
15.7744 -63.2322 0
13.4456 -66.3412 0
12.7652 -63.0378 0
15.7744 -63.2322 0
15.3291 -59.6891 0
12.7652 -63.0378 0
12.1098 -59.5025 0
13.4456 -66.3412 0
12.7652 -63.0378 0
10.346 -66.0713 0
9.43774 -62.7772 0
12.7652 -63.0378 0
12.1098 -59.5025 0
9.43774 -62.7772 0
8.56086 -59.2515 0
21.2804 -59.8691 0
21.2798 -56.0965 0
18.3487 -59.8132 0
18.1352 -56.042 0
21.2798 -56.0965 0
21.282 -52.1139 0
18.1352 -56.042 0
17.9332 -52.0578 0
18.3487 -59.8132 0
18.1352 -56.042 0
15.3291 -59.6891 0
14.9046 -55.9218 0
18.1352 -56.042 0
17.9332 -52.0578 0
14.9046 -55.9218 0
14.4987 -51.9386 0
21.282 -52.1139 0
21.283 -47.9302 0
17.9332 -52.0578 0
17.7386 -47.8701 0
21.283 -47.9302 0
21.279 -43.5533 0
17.7386 -47.8701 0
17.547 -43.4884 0
17.9332 -52.0578 0
17.7386 -47.8701 0
14.4987 -51.9386 0
14.1087 -47.7493 0
17.7386 -47.8701 0
17.547 -43.4884 0
14.1087 -47.7493 0
13.7309 -43.3659 0
15.3291 -59.6891 0
14.9046 -55.9218 0
12.1098 -59.5025 0
11.4799 -55.7418 0
14.9046 -55.9218 0
14.4987 -51.9386 0
11.4799 -55.7418 0
10.8751 -51.7637 0
12.1098 -59.5025 0
11.4799 -55.7418 0
8.56086 -59.2515 0
7.71803 -55.5007 0
11.4799 -55.7418 0
10.8751 -51.7637 0
7.71803 -55.5007 0
6.91249 -51.5331 0
14.4987 -51.9386 0
14.1087 -47.7493 0
10.8751 -51.7637 0
10.295 -47.5788 0
14.1087 -47.7493 0
13.7309 -43.3659 0
10.295 -47.5788 0
9.73914 -43.201 0
10.8751 -51.7637 0
10.295 -47.5788 0
6.91249 -51.5331 0
6.14875 -47.3593 0
10.295 -47.5788 0
9.73914 -43.201 0
6.14875 -47.3593 0
5.43328 -42.9939 0
21.1489 -83.5765 0
22.3838 -83.3784 0
21.1489 -83.9316 0
22.0136 -83.7317 0
22.3838 -83.3784 0
23.6057 -82.79 0
22.0136 -83.7317 0
22.8734 -83.1378 0
21.1489 -83.9316 0
22.0136 -83.7317 0
21.1489 -84.2339 0
21.7432 -84.0268 0
22.0136 -83.7317 0
22.8734 -83.1378 0
21.7432 -84.0268 0
22.3232 -83.4157 0
23.6057 -82.79 0
24.8041 -81.8263 0
22.8734 -83.1378 0
23.7228 -82.1662 0
24.8041 -81.8263 0
25.9719 -80.5073 0
23.7228 -82.1662 0
24.5566 -80.8376 0
22.8734 -83.1378 0
23.7228 -82.1662 0
22.3232 -83.4157 0
22.8816 -82.4241 0
23.7228 -82.1662 0
24.5566 -80.8376 0
22.8816 -82.4241 0
23.4183 -81.0781 0
21.1489 -84.2339 0
21.7432 -84.0268 0
21.1489 -84.6108 0
21.5501 -84.3832 0
21.7432 -84.0268 0
22.3232 -83.4157 0
21.5501 -84.3832 0
21.9149 -83.7205 0
21.1489 -84.6108 0
21.5501 -84.3832 0
21.1489 -85.0131 0
21.3552 -84.757 0
21.5501 -84.3832 0
21.9149 -83.7205 0
21.3552 -84.757 0
21.5078 -84.0232 0
22.3232 -83.4157 0
22.8816 -82.4241 0
21.9149 -83.7205 0
22.2273 -82.6676 0
22.8816 -82.4241 0
23.4183 -81.0781 0
22.2273 -82.6676 0
22.4926 -81.2682 0
21.9149 -83.7205 0
22.2273 -82.6676 0
21.5078 -84.0232 0
21.5853 -82.8851 0
22.2273 -82.6676 0
22.4926 -81.2682 0
21.5853 -82.8851 0
21.5949 -81.4084 0
25.9719 -80.5073 0
27.105 -78.8531 0
24.5566 -80.8376 0
25.3709 -79.1732 0
27.105 -78.8531 0
28.2012 -76.8827 0
25.3709 -79.1732 0
26.1636 -77.1924 0
24.5566 -80.8376 0
25.3709 -79.1732 0
23.4183 -81.0781 0
23.9362 -79.3996 0
25.3709 -79.1732 0
26.1636 -77.1924 0
23.9362 -79.3996 0
24.4382 -77.4075 0
28.2012 -76.8827 0
29.2595 -74.6136 0
26.1636 -77.1924 0
26.9338 -74.9129 0
29.2595 -74.6136 0
30.2798 -72.0625 0
26.9338 -74.9129 0
27.6814 -72.3516 0
26.1636 -77.1924 0
26.9338 -74.9129 0
24.4382 -77.4075 0
24.9274 -75.1188 0
26.9338 -74.9129 0
27.6814 -72.3516 0
24.9274 -75.1188 0
25.4064 -72.5499 0
23.4183 -81.0781 0
23.9362 -79.3996 0
22.4926 -81.2682 0
22.7247 -79.5516 0
23.9362 -79.3996 0
24.4382 -77.4075 0
22.7247 -79.5516 0
22.938 -77.5346 0
22.4926 -81.2682 0
22.7247 -79.5516 0
21.5949 -81.4084 0
21.5558 -79.6306 0
22.7247 -79.5516 0
22.938 -77.5346 0
21.5558 -79.6306 0
21.4949 -77.5762 0
24.4382 -77.4075 0
24.9274 -75.1188 0
22.938 -77.5346 0
23.1452 -75.2318 0
24.9274 -75.1188 0
25.4064 -72.5499 0
23.1452 -75.2318 0
23.3531 -72.6558 0
22.938 -77.5346 0
23.1452 -75.2318 0
21.4949 -77.5762 0
21.432 -75.2547 0
23.1452 -75.2318 0
23.3531 -72.6558 0
21.432 -75.2547 0
21.3771 -72.6714 0
21.1489 -85.0131 0
21.3552 -84.757 0
21.1489 -85.4184 0
21.1415 -85.1159 0
21.3552 -84.757 0
21.5078 -84.0232 0
21.1415 -85.1159 0
21.059 -84.2792 0
21.1489 -85.4184 0
21.1415 -85.1159 0
21.1489 -85.8054 0
20.8727 -85.4251 0
21.1415 -85.1159 0
21.059 -84.2792 0
20.8727 -85.4251 0
20.5161 -84.4358 0
21.5078 -84.0232 0
21.5853 -82.8851 0
21.059 -84.2792 0
20.882 -83.0334 0
21.5853 -82.8851 0
21.5949 -81.4084 0
20.882 -83.0334 0
20.622 -81.4618 0
21.059 -84.2792 0
20.882 -83.0334 0
20.5161 -84.4358 0
20.0341 -83.0453 0
20.882 -83.0334 0
20.622 -81.4618 0
20.0341 -83.0453 0
19.4818 -81.3944 0
21.1489 -85.8054 0
20.8727 -85.4251 0
21.1489 -86.1405 0
20.5257 -85.5877 0
20.8727 -85.4251 0
20.5161 -84.4358 0
20.5257 -85.5877 0
19.7384 -84.3527 0
21.1489 -86.1405 0
20.5257 -85.5877 0
21.1489 -86.1577 0
19.7426 -85.4407 0
20.5257 -85.5877 0
19.7384 -84.3527 0
19.7426 -85.4407 0
18.5071 -84.0272 0
20.5161 -84.4358 0
20.0341 -83.0453 0
19.7384 -84.3527 0
18.877 -82.8671 0
20.0341 -83.0453 0
19.4818 -81.3944 0
18.877 -82.8671 0
18.0336 -81.1878 0
19.7384 -84.3527 0
18.877 -82.8671 0
18.5071 -84.0272 0
17.392 -82.5518 0
18.877 -82.8671 0
18.0336 -81.1878 0
17.392 -82.5518 0
16.3187 -80.8745 0
21.5949 -81.4084 0
21.5558 -79.6306 0
20.622 -81.4618 0
20.3161 -79.6219 0
21.5558 -79.6306 0
21.4949 -77.5762 0
20.3161 -79.6219 0
19.9956 -77.5309 0
20.622 -81.4618 0
20.3161 -79.6219 0
19.4818 -81.3944 0
18.9122 -79.5112 0
20.3161 -79.6219 0
19.9956 -77.5309 0
18.9122 -79.5112 0
18.3441 -77.396 0
21.4949 -77.5762 0
21.432 -75.2547 0
19.9956 -77.5309 0
19.6783 -75.1911 0
21.432 -75.2547 0
21.3771 -72.6714 0
19.6783 -75.1911 0
19.3743 -72.6017 0
19.9956 -77.5309 0
19.6783 -75.1911 0
18.3441 -77.396 0
17.7878 -75.0447 0
19.6783 -75.1911 0
19.3743 -72.6017 0
17.7878 -75.0447 0
17.2498 -72.453 0
19.4818 -81.3944 0
18.9122 -79.5112 0
18.0336 -81.1878 0
17.2118 -79.293 0
18.9122 -79.5112 0
18.3441 -77.396 0
17.2118 -79.293 0
16.412 -77.174 0
18.0336 -81.1878 0
17.2118 -79.293 0
16.3187 -80.8745 0
15.2699 -78.9856 0
17.2118 -79.293 0
16.412 -77.174 0
15.2699 -78.9856 0
14.2416 -76.8727 0
18.3441 -77.396 0
17.7878 -75.0447 0
16.412 -77.174 0
15.6348 -74.8231 0
17.7878 -75.0447 0
17.2498 -72.453 0
15.6348 -74.8231 0
14.8809 -72.2353 0
16.412 -77.174 0
15.6348 -74.8231 0
14.2416 -76.8727 0
13.2334 -74.5287 0
15.6348 -74.8231 0
14.8809 -72.2353 0
13.2334 -74.5287 0
12.2464 -71.9483 0
12.018 -72.0625 0
13.0382 -74.6136 0
14.6163 -72.3516 0
15.3639 -74.9129 0
13.0382 -74.6136 0
14.0965 -76.8827 0
15.3639 -74.9129 0
16.1342 -77.1924 0
14.6163 -72.3516 0
15.3639 -74.9129 0
16.8913 -72.5499 0
17.3704 -75.1188 0
15.3639 -74.9129 0
16.1342 -77.1924 0
17.3704 -75.1188 0
17.8595 -77.4075 0
14.0965 -76.8827 0
15.1927 -78.8531 0
16.1342 -77.1924 0
16.9269 -79.1732 0
15.1927 -78.8531 0
16.3258 -80.5073 0
16.9269 -79.1732 0
17.7412 -80.8376 0
16.1342 -77.1924 0
16.9269 -79.1732 0
17.8595 -77.4075 0
18.3616 -79.3996 0
16.9269 -79.1732 0
17.7412 -80.8376 0
18.3616 -79.3996 0
18.8795 -81.0781 0
16.8913 -72.5499 0
17.3704 -75.1188 0
18.9447 -72.6558 0
19.1525 -75.2318 0
17.3704 -75.1188 0
17.8595 -77.4075 0
19.1525 -75.2318 0
19.3597 -77.5346 0
18.9447 -72.6558 0
19.1525 -75.2318 0
20.9207 -72.6714 0
20.8658 -75.2547 0
19.1525 -75.2318 0
19.3597 -77.5346 0
20.8658 -75.2547 0
20.8029 -77.5762 0
17.8595 -77.4075 0
18.3616 -79.3996 0
19.3597 -77.5346 0
19.573 -79.5516 0
18.3616 -79.3996 0
18.8795 -81.0781 0
19.573 -79.5516 0
19.8052 -81.2682 0
19.3597 -77.5346 0
19.573 -79.5516 0
20.8029 -77.5762 0
20.742 -79.6306 0
19.573 -79.5516 0
19.8052 -81.2682 0
20.742 -79.6306 0
20.7028 -81.4084 0
16.3258 -80.5073 0
17.4936 -81.8263 0
17.7412 -80.8376 0
18.5749 -82.1662 0
17.4936 -81.8263 0
18.692 -82.79 0
18.5749 -82.1662 0
19.4243 -83.1378 0
17.7412 -80.8376 0
18.5749 -82.1662 0
18.8795 -81.0781 0
19.4162 -82.4241 0
18.5749 -82.1662 0
19.4243 -83.1378 0
19.4162 -82.4241 0
19.9745 -83.4157 0
18.692 -82.79 0
19.914 -83.3784 0
19.4243 -83.1378 0
20.2841 -83.7317 0
19.914 -83.3784 0
21.1489 -83.5765 0
20.2841 -83.7317 0
21.1489 -83.9316 0
19.4243 -83.1378 0
20.2841 -83.7317 0
19.9745 -83.4157 0
20.5545 -84.0268 0
20.2841 -83.7317 0
21.1489 -83.9316 0
20.5545 -84.0268 0
21.1489 -84.2339 0
18.8795 -81.0781 0
19.4162 -82.4241 0
19.8052 -81.2682 0
20.0705 -82.6676 0
19.4162 -82.4241 0
19.9745 -83.4157 0
20.0705 -82.6676 0
20.3829 -83.7205 0
19.8052 -81.2682 0
20.0705 -82.6676 0
20.7028 -81.4084 0
20.7124 -82.8851 0
20.0705 -82.6676 0
20.3829 -83.7205 0
20.7124 -82.8851 0
20.7899 -84.0232 0
19.9745 -83.4157 0
20.5545 -84.0268 0
20.3829 -83.7205 0
20.7476 -84.3832 0
20.5545 -84.0268 0
21.1489 -84.2339 0
20.7476 -84.3832 0
21.1489 -84.6108 0
20.3829 -83.7205 0
20.7476 -84.3832 0
20.7899 -84.0232 0
20.9425 -84.757 0
20.7476 -84.3832 0
21.1489 -84.6108 0
20.9425 -84.757 0
21.1489 -85.0131 0
20.9207 -72.6714 0
20.8658 -75.2547 0
22.9234 -72.6017 0
22.6195 -75.1911 0
20.8658 -75.2547 0
20.8029 -77.5762 0
22.6195 -75.1911 0
22.3022 -77.5309 0
22.9234 -72.6017 0
22.6195 -75.1911 0
25.048 -72.453 0
24.5099 -75.0447 0
22.6195 -75.1911 0
22.3022 -77.5309 0
24.5099 -75.0447 0
23.9536 -77.396 0
20.8029 -77.5762 0
20.742 -79.6306 0
22.3022 -77.5309 0
21.9817 -79.6219 0
20.742 -79.6306 0
20.7028 -81.4084 0
21.9817 -79.6219 0
21.6757 -81.4618 0
22.3022 -77.5309 0
21.9817 -79.6219 0
23.9536 -77.396 0
23.3856 -79.5112 0
21.9817 -79.6219 0
21.6757 -81.4618 0
23.3856 -79.5112 0
22.8159 -81.3944 0
25.048 -72.453 0
24.5099 -75.0447 0
27.4169 -72.2353 0
26.663 -74.8231 0
24.5099 -75.0447 0
23.9536 -77.396 0
26.663 -74.8231 0
25.8857 -77.174 0
27.4169 -72.2353 0
26.663 -74.8231 0
30.0513 -71.9483 0
29.0644 -74.5287 0
26.663 -74.8231 0
25.8857 -77.174 0
29.0644 -74.5287 0
28.0561 -76.8727 0
23.9536 -77.396 0
23.3856 -79.5112 0
25.8857 -77.174 0
25.086 -79.293 0
23.3856 -79.5112 0
22.8159 -81.3944 0
25.086 -79.293 0
24.2642 -81.1878 0
25.8857 -77.174 0
25.086 -79.293 0
28.0561 -76.8727 0
27.0278 -78.9856 0
25.086 -79.293 0
24.2642 -81.1878 0
27.0278 -78.9856 0
25.979 -80.8745 0
20.7028 -81.4084 0
20.7124 -82.8851 0
21.6757 -81.4618 0
21.4158 -83.0334 0
20.7124 -82.8851 0
20.7899 -84.0232 0
21.4158 -83.0334 0
21.2387 -84.2792 0
21.6757 -81.4618 0
21.4158 -83.0334 0
22.8159 -81.3944 0
22.2637 -83.0453 0
21.4158 -83.0334 0
21.2387 -84.2792 0
22.2637 -83.0453 0
21.7816 -84.4358 0
20.7899 -84.0232 0
20.9425 -84.757 0
21.2387 -84.2792 0
21.1563 -85.1159 0
20.9425 -84.757 0
21.1489 -85.0131 0
21.1563 -85.1159 0
21.1489 -85.4184 0
21.2387 -84.2792 0
21.1563 -85.1159 0
21.7816 -84.4358 0
21.4251 -85.4251 0
21.1563 -85.1159 0
21.1489 -85.4184 0
21.4251 -85.4251 0
21.1489 -85.8054 0
22.8159 -81.3944 0
22.2637 -83.0453 0
24.2642 -81.1878 0
23.4208 -82.8671 0
22.2637 -83.0453 0
21.7816 -84.4358 0
23.4208 -82.8671 0
22.5593 -84.3527 0
24.2642 -81.1878 0
23.4208 -82.8671 0
25.979 -80.8745 0
24.9057 -82.5518 0
23.4208 -82.8671 0
22.5593 -84.3527 0
24.9057 -82.5518 0
23.7906 -84.0272 0
21.7816 -84.4358 0
21.4251 -85.4251 0
22.5593 -84.3527 0
21.7721 -85.5877 0
21.4251 -85.4251 0
21.1489 -85.8054 0
21.7721 -85.5877 0
21.1489 -86.1405 0
22.5593 -84.3527 0
21.7721 -85.5877 0
23.7906 -84.0272 0
22.5551 -85.4407 0
21.7721 -85.5877 0
21.1489 -86.1405 0
22.5551 -85.4407 0
21.1489 -86.1577 0
5.16608 -43.1338 0
5.89965 -47.4757 0
9.49717 -43.3416 0
10.0479 -47.694 0
5.89965 -47.4757 0
6.66763 -51.6292 0
10.0479 -47.694 0
10.6254 -51.8578 0
9.49717 -43.3416 0
10.0479 -47.694 0
13.4813 -43.4825 0
13.8513 -47.8443 0
10.0479 -47.694 0
10.6254 -51.8578 0
13.8513 -47.8443 0
14.2409 -52.0162 0
6.66763 -51.6292 0
7.4704 -55.5854 0
10.6254 -51.8578 0
11.2289 -55.8242 0
7.4704 -55.5854 0
8.30819 -59.3353 0
11.2289 -55.8242 0
11.858 -59.5842 0
10.6254 -51.8578 0
11.2289 -55.8242 0
14.2409 -52.0162 0
14.6485 -55.9901 0
11.2289 -55.8242 0
11.858 -59.5842 0
14.6485 -55.9901 0
15.0722 -59.7571 0
13.4813 -43.4825 0
13.8513 -47.8443 0
17.289 -43.5528 0
17.4728 -47.9228 0
13.8513 -47.8443 0
14.2409 -52.0162 0
17.4728 -47.9228 0