# vtk DataFile Version 3.0
#This file was generated by the deal.II library on 2020/9/2 at 8:39:46
ASCII
DATASET UNSTRUCTURED_GRID

POINTS 1536 double
5 0 0
5.125 0 0
5 0.125 0
5.125 0.125 0
5.125 0 0
5.25 0 0
5.125 0.125 0
5.25 0.125 0
5 0.125 0
5.125 0.125 0
5 0.25 0
5.125 0.25 0
5.125 0.125 0
5.25 0.125 0
5.125 0.25 0
5.25 0.25 0
5.25 0 0
5.375 0 0
5.25 0.125 0
5.375 0.125 0
5.375 0 0
5.5 0 0
5.375 0.125 0
5.5 0.125 0
5.25 0.125 0
5.375 0.125 0
5.25 0.25 0
5.375 0.25 0
5.375 0.125 0
5.5 0.125 0
5.375 0.25 0
5.5 0.25 0
5 0.25 0
5.125 0.25 0
5 0.375 0
5.125 0.375 0
5.125 0.25 0
5.25 0.25 0
5.125 0.375 0
5.25 0.375 0
5 0.375 0
5.125 0.375 0
5 0.5 0
5.125 0.5 0
5.125 0.375 0
5.25 0.375 0
5.125 0.5 0
5.25 0.5 0
5.25 0.25 0
5.375 0.25 0
5.25 0.375 0
5.375 0.375 0
5.375 0.25 0
5.5 0.25 0
5.375 0.375 0
5.5 0.375 0
5.25 0.375 0
5.375 0.375 0
5.25 0.5 0
5.375 0.5 0
5.375 0.375 0
5.5 0.375 0
5.375 0.5 0
5.5 0.5 0
5.5 0 0
5.625 0 0
5.5 0.125 0
5.625 0.125 0
5.625 0 0
5.75 0 0
5.625 0.125 0
5.75 0.125 0
5.5 0.125 0
5.625 0.125 0
5.5 0.25 0
5.625 0.25 0
5.625 0.125 0
5.75 0.125 0
5.625 0.25 0
5.75 0.25 0
5.75 0 0
5.875 0 0
5.75 0.125 0
5.875 0.125 0
5.875 0 0
6 0 0
5.875 0.125 0
6 0.125 0
5.75 0.125 0
5.875 0.125 0
5.75 0.25 0
5.875 0.25 0
5.875 0.125 0
6 0.125 0
5.875 0.25 0
6 0.25 0
5.5 0.25 0
5.625 0.25 0
5.5 0.375 0
5.625 0.375 0
5.625 0.25 0
5.75 0.25 0
5.625 0.375 0
5.75 0.375 0
5.5 0.375 0
5.625 0.375 0
5.5 0.5 0
5.625 0.5 0
5.625 0.375 0
5.75 0.375 0
5.625 0.5 0
5.75 0.5 0
5.75 0.25 0
5.875 0.25 0
5.75 0.375 0
5.875 0.375 0
5.875 0.25 0
6 0.25 0
5.875 0.375 0
6 0.375 0
5.75 0.375 0
5.875 0.375 0
5.75 0.5 0
5.875 0.5 0
5.875 0.375 0
6 0.375 0
5.875 0.5 0
6 0.5 0
5 0.5 0
5.125 0.5 0
5 0.625 0
5.125 0.625 0
5.125 0.5 0
5.25 0.5 0
5.125 0.625 0
5.25 0.625 0
5 0.625 0
5.125 0.625 0
5 0.75 0
5.125 0.75 0
5.125 0.625 0
5.25 0.625 0
5.125 0.75 0
5.25 0.75 0
5.25 0.5 0
5.375 0.5 0
5.25 0.625 0
5.375 0.625 0
5.375 0.5 0
5.5 0.5 0
5.375 0.625 0
5.5 0.625 0
5.25 0.625 0
5.375 0.625 0
5.25 0.75 0
5.375 0.75 0
5.375 0.625 0
5.5 0.625 0
5.375 0.75 0
5.5 0.75 0
5 0.75 0
5.125 0.75 0
5 0.875 0
5.125 0.875 0
5.125 0.75 0
5.25 0.75 0
5.125 0.875 0
5.25 0.875 0
5 0.875 0
5.125 0.875 0
5 1 0
5.125 1 0
5.125 0.875 0
5.25 0.875 0
5.125 1 0
5.25 1 0
5.25 0.75 0
5.375 0.75 0
5.25 0.875 0
5.375 0.875 0
5.375 0.75 0
5.5 0.75 0
5.375 0.875 0
5.5 0.875 0
5.25 0.875 0
5.375 0.875 0
5.25 1 0
5.375 1 0
5.375 0.875 0
5.5 0.875 0
5.375 1 0
5.5 1 0
5.5 0.5 0
5.625 0.5 0
5.5 0.625 0
5.625 0.625 0
5.625 0.5 0
5.75 0.5 0
5.625 0.625 0
5.75 0.625 0
5.5 0.625 0
5.625 0.625 0
5.5 0.75 0
5.625 0.75 0
5.625 0.625 0
5.75 0.625 0
5.625 0.75 0
5.75 0.75 0
5.75 0.5 0
5.875 0.5 0
5.75 0.625 0
5.875 0.625 0
5.875 0.5 0
6 0.5 0
5.875 0.625 0
6 0.625 0
5.75 0.625 0
5.875 0.625 0
5.75 0.75 0
5.875 0.75 0
5.875 0.625 0
6 0.625 0
5.875 0.75 0
6 0.75 0
5.5 0.75 0
5.625 0.75 0
5.5 0.875 0
5.625 0.875 0
5.625 0.75 0
5.75 0.75 0
5.625 0.875 0
5.75 0.875 0
5.5 0.875 0
5.625 0.875 0
5.5 1 0
5.625 1 0
5.625 0.875 0
5.75 0.875 0
5.625 1 0
5.75 1 0
5.75 0.75 0
5.875 0.75 0
5.75 0.875 0
5.875 0.875 0
5.875 0.75 0
6 0.75 0
5.875 0.875 0
6 0.875 0
5.75 0.875 0
5.875 0.875 0
5.75 1 0
5.875 1 0
5.875 0.875 0
6 0.875 0
5.875 1 0
6 1 0
4 0 0
4.125 0 0
4 0.125 0
4.125 0.125 0
4.125 0 0
4.25 0 0
4.125 0.125 0
4.25 0.125 0
4 0.125 0
4.125 0.125 0
4 0.25 0
4.125 0.25 0
4.125 0.125 0
4.25 0.125 0
4.125 0.25 0
4.25 0.25 0
4.25 0 0
4.375 0 0
4.25 0.125 0
4.375 0.125 0
4.375 0 0
4.5 0 0
4.375 0.125 0
4.5 0.125 0
4.25 0.125 0
4.375 0.125 0
4.25 0.25 0
4.375 0.25 0
4.375 0.125 0
4.5 0.125 0
4.375 0.25 0
4.5 0.25 0
4 0.25 0
4.125 0.25 0
4 0.375 0
4.125 0.375 0
4.125 0.25 0
4.25 0.25 0
4.125 0.375 0
4.25 0.375 0
4 0.375 0
4.125 0.375 0
4 0.5 0
4.125 0.5 0
4.125 0.375 0
4.25 0.375 0
4.125 0.5 0
4.25 0.5 0
4.25 0.25 0
4.375 0.25 0
4.25 0.375 0
4.375 0.375 0
4.375 0.25 0
4.5 0.25 0
4.375 0.375 0
4.5 0.375 0
4.25 0.375 0
4.375 0.375 0
4.25 0.5 0
4.375 0.5 0
4.375 0.375 0
4.5 0.375 0
4.375 0.5 0
4.5 0.5 0
4.5 0 0
4.625 0 0
4.5 0.125 0
4.625 0.125 0
4.625 0 0
4.75 0 0
4.625 0.125 0
4.75 0.125 0
4.5 0.125 0
4.625 0.125 0
4.5 0.25 0
4.625 0.25 0
4.625 0.125 0
4.75 0.125 0
4.625 0.25 0
4.75 0.25 0
4.75 0 0
4.875 0 0
4.75 0.125 0
4.875 0.125 0
4.875 0 0
5 0 0
4.875 0.125 0
5 0.125 0
4.75 0.125 0
4.875 0.125 0
4.75 0.25 0
4.875 0.25 0
4.875 0.125 0
5 0.125 0
4.875 0.25 0
5 0.25 0
4.5 0.25 0
4.625 0.25 0
4.5 0.375 0
4.625 0.375 0
4.625 0.25 0
4.75 0.25 0
4.625 0.375 0
4.75 0.375 0
4.5 0.375 0
4.625 0.375 0
4.5 0.5 0
4.625 0.5 0
4.625 0.375 0
4.75 0.375 0
4.625 0.5 0
4.75 0.5 0
4.75 0.25 0
4.875 0.25 0
4.75 0.375 0
4.875 0.375 0
4.875 0.25 0
5 0.25 0
4.875 0.375 0
5 0.375 0
4.75 0.375 0
4.875 0.375 0
4.75 0.5 0
4.875 0.5 0
4.875 0.375 0
5 0.375 0
4.875 0.5 0
5 0.5 0
4 0.5 0
4.125 0.5 0
4 0.625 0
4.125 0.625 0
4.125 0.5 0
4.25 0.5 0
4.125 0.625 0
4.25 0.625 0
4 0.625 0
4.125 0.625 0
4 0.75 0
4.125 0.75 0
4.125 0.625 0
4.25 0.625 0
4.125 0.75 0
4.25 0.75 0
4.25 0.5 0
4.375 0.5 0
4.25 0.625 0
4.375 0.625 0
4.375 0.5 0
4.5 0.5 0
4.375 0.625 0
4.5 0.625 0
4.25 0.625 0
4.375 0.625 0
4.25 0.75 0
4.375 0.75 0
4.375 0.625 0
4.5 0.625 0
4.375 0.75 0
4.5 0.75 0
4 0.75 0
4.125 0.75 0
4 0.875 0
4.125 0.875 0
4.125 0.75 0
4.25 0.75 0
4.125 0.875 0
4.25 0.875 0
4 0.875 0
4.125 0.875 0
4 1 0
4.125 1 0
4.125 0.875 0
4.25 0.875 0
4.125 1 0
4.25 1 0
4.25 0.75 0
4.375 0.75 0
4.25 0.875 0
4.375 0.875 0
4.375 0.75 0
4.5 0.75 0
4.375 0.875 0
4.5 0.875 0
4.25 0.875 0
4.375 0.875 0
4.25 1 0
4.375 1 0
4.375 0.875 0
4.5 0.875 0
4.375 1 0
4.5 1 0
4.5 0.5 0
4.625 0.5 0
4.5 0.625 0
4.625 0.625 0
4.625 0.5 0
4.75 0.5 0
4.625 0.625 0
4.75 0.625 0
4.5 0.625 0
4.625 0.625 0
4.5 0.75 0
4.625 0.75 0
4.625 0.625 0
4.75 0.625 0
4.625 0.75 0
4.75 0.75 0
4.75 0.5 0
4.875 0.5 0
4.75 0.625 0
4.875 0.625 0
4.875 0.5 0
5 0.5 0
4.875 0.625 0
5 0.625 0
4.75 0.625 0
4.875 0.625 0
4.75 0.75 0
4.875 0.75 0
4.875 0.625 0
5 0.625 0
4.875 0.75 0
5 0.75 0
4.5 0.75 0
4.625 0.75 0
4.5 0.875 0
4.625 0.875 0
4.625 0.75 0
4.75 0.75 0
4.625 0.875 0
4.75 0.875 0
4.5 0.875 0
4.625 0.875 0
4.5 1 0
4.625 1 0
4.625 0.875 0
4.75 0.875 0
4.625 1 0
4.75 1 0
4.75 0.75 0
4.875 0.75 0
4.75 0.875 0
4.875 0.875 0
4.875 0.75 0
5 0.75 0
4.875 0.875 0
5 0.875 0
4.75 0.875 0
4.875 0.875 0
4.75 1 0
4.875 1 0
4.875 0.875 0
5 0.875 0
4.875 1 0
5 1 0
3 0 0
3.125 0 0
3 0.125 0
3.125 0.125 0
3.125 0 0
3.25 0 0
3.125 0.125 0
3.25 0.125 0
3 0.125 0
3.125 0.125 0
3 0.25 0
3.125 0.25 0
3.125 0.125 0
3.25 0.125 0
3.125 0.25 0
3.25 0.25 0
3.25 0 0
3.375 0 0
3.25 0.125 0
3.375 0.125 0
3.375 0 0
3.5 0 0
3.375 0.125 0
3.5 0.125 0
3.25 0.125 0
3.375 0.125 0
3.25 0.25 0
3.375 0.25 0
3.375 0.125 0
3.5 0.125 0
3.375 0.25 0
3.5 0.25 0
3 0.25 0
3.125 0.25 0
3 0.375 0
3.125 0.375 0
3.125 0.25 0
3.25 0.25 0
3.125 0.375 0
3.25 0.375 0
3 0.375 0
3.125 0.375 0
3 0.5 0
3.125 0.5 0
3.125 0.375 0
3.25 0.375 0
3.125 0.5 0
3.25 0.5 0
3.25 0.25 0
3.375 0.25 0
3.25 0.375 0
3.375 0.375 0
3.375 0.25 0
3.5 0.25 0
3.375 0.375 0
3.5 0.375 0
3.25 0.375 0
3.375 0.375 0
3.25 0.5 0
3.375 0.5 0
3.375 0.375 0
3.5 0.375 0
3.375 0.5 0
3.5 0.5 0
3.5 0 0
3.625 0 0
3.5 0.125 0
3.625 0.125 0
3.625 0 0
3.75 0 0
3.625 0.125 0
3.75 0.125 0
3.5 0.125 0
3.625 0.125 0
3.5 0.25 0
3.625 0.25 0
3.625 0.125 0
3.75 0.125 0
3.625 0.25 0
3.75 0.25 0
3.75 0 0
3.875 0 0
3.75 0.125 0
3.875 0.125 0
3.875 0 0
4 0 0
3.875 0.125 0
4 0.125 0
3.75 0.125 0
3.875 0.125 0
3.75 0.25 0
3.875 0.25 0
3.875 0.125 0
4 0.125 0
3.875 0.25 0
4 0.25 0
3.5 0.25 0
3.625 0.25 0
3.5 0.375 0
3.625 0.375 0
3.625 0.25 0
3.75 0.25 0
3.625 0.375 0
3.75 0.375 0
3.5 0.375 0
3.625 0.375 0
3.5 0.5 0
3.625 0.5 0
3.625 0.375 0
3.75 0.375 0
3.625 0.5 0
3.75 0.5 0
3.75 0.25 0
3.875 0.25 0
3.75 0.375 0
3.875 0.375 0
3.875 0.25 0
4 0.25 0
3.875 0.375 0
4 0.375 0
3.75 0.375 0
3.875 0.375 0
3.75 0.5 0
3.875 0.5 0
3.875 0.375 0
4 0.375 0
3.875 0.5 0
4 0.5 0
3 0.5 0
3.125 0.5 0
3 0.625 0
3.125 0.625 0
3.125 0.5 0
3.25 0.5 0
3.125 0.625 0
3.25 0.625 0
3 0.625 0
3.125 0.625 0
3 0.75 0
3.125 0.75 0
3.125 0.625 0
3.25 0.625 0
3.125 0.75 0
3.25 0.75 0
3.25 0.5 0
3.375 0.5 0
3.25 0.625 0
3.375 0.625 0
3.375 0.5 0
3.5 0.5 0
3.375 0.625 0
3.5 0.625 0
3.25 0.625 0
3.375 0.625 0
3.25 0.75 0
3.375 0.75 0
3.375 0.625 0
3.5 0.625 0
3.375 0.75 0
3.5 0.75 0
3 0.75 0
3.125 0.75 0
3 0.875 0
3.125 0.875 0
3.125 0.75 0
3.25 0.75 0
3.125 0.875 0
3.25 0.875 0
3 0.875 0
3.125 0.875 0
3 1 0
3.125 1 0
3.125 0.875 0
3.25 0.875 0
3.125 1 0
3.25 1 0
3.25 0.75 0
3.375 0.75 0
3.25 0.875 0
3.375 0.875 0
3.375 0.75 0
3.5 0.75 0
3.375 0.875 0
3.5 0.875 0
3.25 0.875 0
3.375 0.875 0
3.25 1 0
3.375 1 0
3.375 0.875 0
3.5 0.875 0
3.375 1 0
3.5 1 0
3.5 0.5 0
3.625 0.5 0
3.5 0.625 0
3.625 0.625 0
3.625 0.5 0
3.75 0.5 0
3.625 0.625 0
3.75 0.625 0
3.5 0.625 0
3.625 0.625 0
3.5 0.75 0
3.625 0.75 0
3.625 0.625 0
3.75 0.625 0
3.625 0.75 0
3.75 0.75 0
3.75 0.5 0
3.875 0.5 0
3.75 0.625 0
3.875 0.625 0
3.875 0.5 0
4 0.5 0
3.875 0.625 0
4 0.625 0
3.75 0.625 0
3.875 0.625 0
3.75 0.75 0
3.875 0.75 0
3.875 0.625 0
4 0.625 0
3.875 0.75 0
4 0.75 0
3.5 0.75 0
3.625 0.75 0
3.5 0.875 0
3.625 0.875 0
3.625 0.75 0
3.75 0.75 0
3.625 0.875 0
3.75 0.875 0
3.5 0.875 0
3.625 0.875 0
3.5 1 0
3.625 1 0
3.625 0.875 0
3.75 0.875 0
3.625 1 0
3.75 1 0
3.75 0.75 0
3.875 0.75 0
3.75 0.875 0
3.875 0.875 0
3.875 0.75 0
4 0.75 0
3.875 0.875 0
4 0.875 0
3.75 0.875 0
3.875 0.875 0
3.75 1 0
3.875 1 0
3.875 0.875 0
4 0.875 0
3.875 1 0
4 1 0
2 0 0
2.125 0 0
2 0.125 0
2.125 0.125 0
2.125 0 0
2.25 0 0
2.125 0.125 0
2.25 0.125 0
2 0.125 0
2.125 0.125 0
2 0.25 0
2.125 0.25 0
2.125 0.125 0
2.25 0.125 0
2.125 0.25 0
2.25 0.25 0
2.25 0 0
2.375 0 0
2.25 0.125 0
2.375 0.125 0
2.375 0 0
2.5 0 0
2.375 0.125 0
2.5 0.125 0
2.25 0.125 0
2.375 0.125 0
2.25 0.25 0
2.375 0.25 0
2.375 0.125 0
2.5 0.125 0
2.375 0.25 0
2.5 0.25 0
2 0.25 0
2.125 0.25 0
2 0.375 0
2.125 0.375 0
2.125 0.25 0
2.25 0.25 0
2.125 0.375 0
2.25 0.375 0
2 0.375 0
2.125 0.375 0
2 0.5 0
2.125 0.5 0
2.125 0.375 0
2.25 0.375 0
2.125 0.5 0
2.25 0.5 0
2.25 0.25 0
2.375 0.25 0
2.25 0.375 0
2.375 0.375 0
2.375 0.25 0
[...]
POINT_DATA 1536
VECTORS displacements double
35.1829 -40.383 0
35.833 -36.1539 0
31.1322 -40.5767 0
31.6185 -36.336 0
35.833 -36.1539 0
36.4486 -31.7664 0
31.6185 -36.336 0
32.0741 -31.9371 0
31.1322 -40.5767 0
31.6185 -36.336 0
27.3172 -40.7092 0
27.638 -36.4567 0
31.6185 -36.336 0
32.0741 -31.9371 0
27.638 -36.4567 0
27.9311 -32.0441 0
36.4486 -31.7664 0
37.0343 -27.2268 0
32.0741 -31.9371 0
32.4978 -27.3863 0
37.0343 -27.2268 0
37.5999 -22.5344 0
32.4978 -27.3863 0
32.887 -22.6844 0
32.0741 -31.9371 0
32.4978 -27.3863 0
27.9311 -32.0441 0
28.1907 -27.4772 0
32.4978 -27.3863 0
32.887 -22.6844 0
28.1907 -27.4772 0
28.4064 -22.7546 0
27.3172 -40.7092 0
27.638 -36.4567 0
23.652 -40.7781 0
23.8046 -36.5137 0
27.638 -36.4567 0
27.9311 -32.0441 0
23.8046 -36.5137 0
23.9357 -32.0864 0
23.652 -40.7781 0
23.8046 -36.5137 0
20.0549 -40.7855 0
20.0389 -36.5115 0
23.8046 -36.5137 0
23.9357 -32.0864 0
20.0389 -36.5115 0
20.0106 -32.0727 0
27.9311 -32.0441 0
28.1907 -27.4772 0
23.9357 -32.0864 0
24.0375 -27.5019 0
28.1907 -27.4772 0
28.4064 -22.7546 0
24.0375 -27.5019 0
24.0988 -22.7612 0
23.9357 -32.0864 0
24.0375 -27.5019 0
20.0106 -32.0727 0
19.9638 -27.477 0
24.0375 -27.5019 0
24.0988 -22.7612 0
19.9638 -27.477 0
19.8919 -22.7326 0
37.5999 -22.5344 0
38.1651 -17.6776 0
32.887 -22.6844 0
33.2322 -17.8132 0
38.1651 -17.6776 0
38.7733 -12.5792 0
33.2322 -17.8132 0
33.5041 -12.7318 0
32.887 -22.6844 0
33.2322 -17.8132 0
28.4064 -22.7546 0
28.5607 -17.8603 0
33.2322 -17.8132 0
33.5041 -12.7318 0
28.5607 -17.8603 0
28.6162 -12.7275 0
38.7733 -12.5792 0
39.4875 -7.18969 0
33.5041 -12.7318 0
33.5584 -7.1326 0
39.4875 -7.18969 0
39.9194 0 0
33.5584 -7.1326 0
33.714 -1.32022 0
33.5041 -12.7318 0
33.5584 -7.1326 0
28.6162 -12.7275 0
28.6023 -7.34878 0
33.5584 -7.1326 0
33.714 -1.32022 0
28.6023 -7.34878 0
28.7493 -2.25768 0
28.4064 -22.7546 0
28.5607 -17.8603 0
24.0988 -22.7612 0
24.1047 -17.855 0
28.5607 -17.8603 0
28.6162 -12.7275 0
24.1047 -17.855 0
24.0584 -12.7873 0
24.0988 -22.7612 0
24.1047 -17.855 0
19.8919 -22.7326 0
19.7976 -17.8564 0
24.1047 -17.855 0
24.0584 -12.7873 0
19.7976 -17.8564 0
19.7229 -12.9065 0
28.6162 -12.7275 0
28.6023 -7.34878 0
24.0584 -12.7873 0
24.0669 -7.69572 0
28.6023 -7.34878 0
28.7493 -2.25768 0
24.0669 -7.69572 0
24.1942 -2.91968 0
24.0584 -12.7873 0
24.0669 -7.69572 0
19.7229 -12.9065 0
19.725 -8.01422 0
24.0669 -7.69572 0
24.1942 -2.91968 0
19.725 -8.01422 0
19.8195 -3.40933 0
20.0549 -40.7855 0
20.0389 -36.5115 0
16.4575 -40.736 0
16.276 -36.4575 0
20.0389 -36.5115 0
20.0106 -32.0727 0
16.276 -36.4575 0
16.0953 -32.0152 0
16.4575 -40.736 0
16.276 -36.4575 0
12.7953 -40.6359 0
12.4573 -36.3602 0
16.276 -36.4575 0
16.0953 -32.0152 0
12.4573 -36.3602 0
12.1381 -31.9245 0
20.0106 -32.0727 0
19.9638 -27.477 0
16.0953 -32.0152 0
15.9144 -27.4209 0
19.9638 -27.477 0
19.8919 -22.7326 0
15.9144 -27.4209 0
15.7378 -22.6938 0
16.0953 -32.0152 0
15.9144 -27.4209 0
12.1381 -31.9245 0
11.8434 -27.3446 0
15.9144 -27.4209 0
15.7378 -22.6938 0
11.8434 -27.3446 0
11.586 -22.6467 0
12.7953 -40.6359 0
12.4573 -36.3602 0
8.99986 -40.4903 0
8.51872 -36.224 0
12.4573 -36.3602 0
12.1381 -31.9245 0
8.51872 -36.224 0
8.07567 -31.8023 0
8.99986 -40.4903 0
8.51872 -36.224 0
4.95691 -40.2981 0
4.3342 -36.0472 0
8.51872 -36.224 0
8.07567 -31.8023 0
4.3342 -36.0472 0
3.77242 -31.6448 0
12.1381 -31.9245 0
11.8434 -27.3446 0
8.07567 -31.8023 0
7.68128 -27.2442 0
11.8434 -27.3446 0
11.586 -22.6467 0
7.68128 -27.2442 0
7.35084 -22.5783 0
8.07567 -31.8023 0
7.68128 -27.2442 0
3.77242 -31.6448 0
3.28234 -27.1122 0
7.68128 -27.2442 0
7.35084 -22.5783 0
3.28234 -27.1122 0
2.87864 -22.4775 0
19.8919 -22.7326 0
19.7976 -17.8564 0
15.7378 -22.6938 0
15.5848 -17.8716 0
19.7976 -17.8564 0
19.7229 -12.9065 0
15.5848 -17.8716 0
15.4884 -13.024 0
15.7378 -22.6938 0
15.5848 -17.8716 0
11.586 -22.6467 0
11.3855 -17.8767 0
15.5848 -17.8716 0
15.4884 -13.024 0
11.3855 -17.8767 0
11.2588 -13.1018 0
19.7229 -12.9065 0
19.725 -8.01422 0
15.4884 -13.024 0
15.4724 -8.25804 0
19.725 -8.01422 0
19.8195 -3.40933 0
15.4724 -8.25804 0
15.5301 -3.74784 0
15.4884 -13.024 0
15.4724 -8.25804 0
11.2588 -13.1018 0
11.2158 -8.41342 0
15.4724 -8.25804 0
15.5301 -3.74784 0
11.2158 -8.41342 0
11.2342 -3.92886 0
11.586 -22.6467 0
11.3855 -17.8767 0
7.35084 -22.5783 0
7.09893 -17.8486 0
11.3855 -17.8767 0
11.2588 -13.1018 0
7.09893 -17.8486 0
6.93684 -13.1219 0
7.35084 -22.5783 0
7.09893 -17.8486 0
2.87864 -22.4775 0
2.58442 -17.7848 0
7.09893 -17.8486 0
6.93684 -13.1219 0
2.58442 -17.7848 0
2.42088 -13.0996 0
11.2588 -13.1018 0
11.2158 -8.41342 0
6.93684 -13.1219 0
6.8641 -8.48195 0
11.2158 -8.41342 0
11.2342 -3.92886 0
6.8641 -8.48195 0
6.8516 -3.98038 0
6.93684 -13.1219 0
6.8641 -8.48195 0
2.42088 -13.0996 0
2.3728 -8.49345 0
6.8641 -8.48195 0
6.8516 -3.98038 0
2.3728 -8.49345 0
2.37119 -3.98219 0
28.6728 -67.4039 0
29.6111 -64.7796 0
26.2532 -67.681 0
26.951 -65.047 0
29.6111 -64.7796 0
30.5143 -61.9198 0
26.951 -65.047 0
27.6253 -62.1774 0
26.2532 -67.681 0
26.951 -65.047 0
24.0615 -67.8738 0
24.5202 -65.2338 0
26.951 -65.047 0
27.6253 -62.1774 0
24.5202 -65.2338 0
24.9668 -62.3583 0
30.5143 -61.9198 0
31.3823 -58.8351 0
27.6253 -62.1774 0
28.2753 -59.0828 0
31.3823 -58.8351 0
32.215 -55.5357 0
28.2753 -59.0828 0
28.9002 -55.7732 0
27.6253 -62.1774 0
28.2753 -59.0828 0
24.9668 -62.3583 0
25.4001 -59.2574 0
28.2753 -59.0828 0
28.9002 -55.7732 0
25.4001 -59.2574 0
25.8188 -55.9411 0
24.0615 -67.8738 0
24.5202 -65.2338 0
22.058 -67.9811 0
22.2743 -65.3382 0
24.5202 -65.2338 0
24.9668 -62.3583 0
22.2743 -65.3382 0
22.4888 -62.4603 0
22.058 -67.9811 0
22.2743 -65.3382 0
20.1284 -68.0042 0
20.105 -65.3609 0
22.2743 -65.3382 0
22.4888 -62.4603 0
20.105 -65.3609 0
20.0886 -62.484 0
24.9668 -62.3583 0
25.4001 -59.2574 0
22.4888 -62.4603 0
22.7004 -59.357 0
25.4001 -59.2574 0
25.8188 -55.9411 0
22.7004 -59.357 0
22.9075 -56.0374 0
22.4888 -62.4603 0
22.7004 -59.357 0
20.0886 -62.484 0
20.0783 -59.3816 0
22.7004 -59.357 0
22.9075 -56.0374 0
20.0783 -59.3816 0
20.0726 -56.062 0
32.215 -55.5357 0
33.0119 -52.0312 0
28.9002 -55.7732 0
29.4993 -52.2582 0
33.0119 -52.0312 0
33.7725 -48.3312 0
29.4993 -52.2582 0
30.0716 -48.5474 0
28.9002 -55.7732 0
29.4993 -52.2582 0
25.8188 -55.9411 0
26.2215 -52.4187 0
29.4993 -52.2582 0
30.0716 -48.5474 0
26.2215 -52.4187 0
26.6066 -48.6996 0
33.7725 -48.3312 0
34.4962 -44.4452 0
30.0716 -48.5474 0
30.6163 -44.6504 0
34.4962 -44.4452 0
35.1829 -40.383 0
30.6163 -44.6504 0
31.1322 -40.5767 0
30.0716 -48.5474 0
30.6163 -44.6504 0
26.6066 -48.6996 0
26.9725 -44.7933 0
30.6163 -44.6504 0
31.1322 -40.5767 0
26.9725 -44.7933 0
27.3172 -40.7092 0
25.8188 -55.9411 0
26.2215 -52.4187 0
22.9075 -56.0374 0
23.1083 -52.5106 0
26.2215 -52.4187 0
26.6066 -48.6996 0
23.1083 -52.5106 0
23.3008 -48.7856 0
22.9075 -56.0374 0
23.1083 -52.5106 0
20.0726 -56.062 0
20.0695 -52.5338 0
23.1083 -52.5106 0
23.3008 -48.7856 0
20.0695 -52.5338 0
20.0671 -48.8056 0
26.6066 -48.6996 0
26.9725 -44.7933 0
23.3008 -48.7856 0
23.4829 -44.8718 0
26.9725 -44.7933 0
27.3172 -40.7092 0
23.4829 -44.8718 0
23.652 -40.7781 0
23.3008 -48.7856 0
23.4829 -44.8718 0
20.0671 -48.8056 0
20.0632 -44.8865 0
23.4829 -44.8718 0
23.652 -40.7781 0
20.0632 -44.8865 0
20.0549 -40.7855 0
20.1284 -68.0042 0
20.105 -65.3609 0
18.1793 -67.947 0
17.9226 -65.3056 0
20.105 -65.3609 0
20.0886 -62.484 0
17.9226 -65.3056 0
17.6801 -62.4324 0
18.1793 -67.947 0
17.9226 -65.3056 0
16.1241 -67.814 0
15.6429 -65.1773 0
17.9226 -65.3056 0
17.6801 -62.4324 0
15.6429 -65.1773 0
15.1811 -62.3101 0
20.0886 -62.484 0
20.0783 -59.3816 0
17.6801 -62.4324 0
17.451 -59.3339 0
20.0783 -59.3816 0
20.0726 -56.062 0
17.451 -59.3339 0
17.2342 -56.0172 0
17.6801 -62.4324 0
17.451 -59.3339 0
15.1811 -62.3101 0
14.7385 -59.2175 0
17.451 -59.3339 0
17.2342 -56.0172 0
14.7385 -59.2175 0
14.3146 -55.9062 0
16.1241 -67.814 0
15.6429 -65.1773 0
13.8735 -67.6106 0
13.1756 -64.9809 0
15.6429 -65.1773 0
15.1811 -62.3101 0
13.1756 -64.9809 0
12.5015 -62.1212 0
13.8735 -67.6106 0
13.1756 -64.9809 0
11.4337 -67.3356 0
10.5095 -64.7143 0
13.1756 -64.9809 0
12.5015 -62.1212 0
10.5095 -64.7143 0
9.61318 -61.8635 0
15.1811 -62.3101 0
14.7385 -59.2175 0
12.5015 -62.1212 0
11.8519 -59.0363 0
14.7385 -59.2175 0
14.3146 -55.9062 0
11.8519 -59.0363 0
11.2273 -55.7324 0
12.5015 -62.1212 0
11.8519 -59.0363 0
9.61318 -61.8635 0
8.74695 -58.788 0
11.8519 -59.0363 0
11.2273 -55.7324 0
8.74695 -58.788 0
7.91313 -55.494 0
20.0726 -56.062 0
20.0695 -52.5338 0
17.2342 -56.0172 0
17.0282 -52.4904 0
20.0695 -52.5338 0
20.0671 -48.8056 0
17.0282 -52.4904 0
16.8313 -48.7619 0
17.2342 -56.0172 0
17.0282 -52.4904 0
14.3146 -55.9062 0
13.909 -52.3837 0
17.0282 -52.4904 0
16.8313 -48.7619 0
13.909 -52.3837 0
13.521 -48.6582 0
20.0671 -48.8056 0
20.0632 -44.8865 0
16.8313 -48.7619 0
16.6418 -44.8407 0
20.0632 -44.8865 0
20.0549 -40.7855 0
16.6418 -44.8407 0
16.4575 -40.736 0
16.8313 -48.7619 0
16.6418 -44.8407 0
13.521 -48.6582 0
13.1499 -44.7389 0
16.6418 -44.8407 0
16.4575 -40.736 0
13.1499 -44.7389 0
12.7953 -40.6359 0
14.3146 -55.9062 0
13.909 -52.3837 0
11.2273 -55.7324 0
10.6288 -52.217 0
13.909 -52.3837 0
13.521 -48.6582 0
10.6288 -52.217 0
10.0572 -48.4984 0
11.2273 -55.7324 0
10.6288 -52.217 0
7.91313 -55.494 0
7.11406 -51.989 0
10.6288 -52.217 0
10.0572 -48.4984 0
7.11406 -51.989 0
6.35247 -48.2814 0
13.521 -48.6582 0
13.1499 -44.7389 0
10.0572 -48.4984 0
9.51362 -44.5859 0
13.1499 -44.7389 0
12.7953 -40.6359 0
9.51362 -44.5859 0
8.99986 -40.4903 0
10.0572 -48.4984 0
9.51362 -44.5859 0
6.35247 -48.2814 0
5.63185 -44.3807 0
9.51362 -44.5859 0
8.99986 -40.4903 0
5.63185 -44.3807 0
4.95691 -40.2981 0
19.9597 -78.1502 0
21.1376 -77.9656 0
19.9597 -78.4905 0
20.7936 -78.3041 0
21.1376 -77.9656 0
22.3035 -77.4167 0
20.7936 -78.3041 0
21.6217 -77.7499 0
19.9597 -78.4905 0
20.7936 -78.3041 0
19.9597 -78.7567 0
20.5132 -78.5664 0
20.7936 -78.3041 0
21.6217 -77.7499 0
20.5132 -78.5664 0
21.0592 -78.002 0
22.3035 -77.4167 0
23.4476 -76.5165 0
21.6217 -77.7499 0
22.439 -76.8419 0
23.4476 -76.5165 0
24.5623 -75.2831 0
22.439 -76.8419 0
23.2412 -75.5995 0
21.6217 -77.7499 0
22.439 -76.8419 0
21.0592 -78.002 0
21.5927 -77.0811 0
22.439 -76.8419 0
23.2412 -75.5995 0
21.5927 -77.0811 0
22.1119 -75.8258 0
19.9597 -78.7567 0
20.5132 -78.5664 0
19.9597 -79.0283 0
20.2946 -78.8255 0
20.5132 -78.5664 0
21.0592 -78.002 0
20.2946 -78.8255 0
20.6099 -78.2301 0
19.9597 -79.0283 0
20.2946 -78.8255 0
19.9597 -79.3224 0
20.0934 -79.0967 0
20.2946 -78.8255 0
20.6099 -78.2301 0
20.0934 -79.0967 0
20.1923 -78.4456 0
21.0592 -78.002 0
21.5927 -77.0811 0
20.6099 -78.2301 0
20.8961 -77.2724 0
21.5927 -77.0811 0
22.1119 -75.8258 0
20.8961 -77.2724 0
21.1548 -75.9851 0
20.6099 -78.2301 0
20.8961 -77.2724 0
20.1923 -78.4456 0
20.2421 -77.4242 0
20.8961 -77.2724 0
21.1548 -75.9851 0
20.2421 -77.4242 0
20.2489 -76.0834 0
24.5623 -75.2831 0
25.6436 -73.7368 0
23.2412 -75.5995 0
24.0253 -74.0434 0
25.6436 -73.7368 0
26.6894 -71.8968 0
24.0253 -74.0434 0
24.7895 -72.1935 0
23.2412 -75.5995 0
24.0253 -74.0434 0
22.1119 -75.8258 0
22.6173 -74.2588 0
24.0253 -74.0434 0
24.7895 -72.1935 0
22.6173 -74.2588 0
23.1101 -72.4001 0
26.6894 -71.8968 0
27.699 -69.7808 0
24.7895 -72.1935 0
25.5324 -70.0676 0
27.699 -69.7808 0
28.6728 -67.4039 0
25.5324 -70.0676 0
26.2532 -67.681 0
24.7895 -72.1935 0
25.5324 -70.0676 0
23.1101 -72.4001 0
23.5914 -70.2668 0
25.5324 -70.0676 0
26.2532 -67.681 0
23.5914 -70.2668 0
24.0615 -67.8738 0
22.1119 -75.8258 0
22.6173 -74.2588 0
21.1548 -75.9851 0
21.3934 -74.3949 0
22.6173 -74.2588 0
23.1101 -72.4001 0
21.3934 -74.3949 0
21.6198 -72.5211 0
21.1548 -75.9851 0
21.3934 -74.3949 0
20.2489 -76.0834 0
20.2275 -74.4555 0
21.3934 -74.3949 0
21.6198 -72.5211 0
20.2275 -74.4555 0
20.1937 -72.5594 0
23.1101 -72.4001 0
23.5914 -70.2668 0
21.6198 -72.5211 0
21.8402 -70.379 0
23.5914 -70.2668 0
24.0615 -67.8738 0
21.8402 -70.379 0
22.058 -67.9811 0
21.6198 -72.5211 0
21.8402 -70.379 0
20.1937 -72.5594 0
20.1588 -70.4063 0
21.8402 -70.379 0
22.058 -67.9811 0
20.1588 -70.4063 0
20.1284 -68.0042 0
19.9597 -79.3224 0
20.0934 -79.0967 0
19.9597 -79.6272 0
19.8846 -79.3618 0
20.0934 -79.0967 0
20.1923 -78.4456 0
19.8846 -79.3618 0
19.7544 -78.6235 0
19.9597 -79.6272 0
19.8846 -79.3618 0
19.9597 -79.9202 0
19.6361 -79.5871 0
19.8846 -79.3618 0
19.7544 -78.6235 0
19.6361 -79.5871 0
19.2451 -78.7162 0
20.1923 -78.4456 0
20.2421 -77.4242 0
19.7544 -78.6235 0
19.5561 -77.5136 0
20.2421 -77.4242 0
20.2489 -76.0834 0
19.5561 -77.5136 0
19.3022 -76.1038 0
19.7544 -78.6235 0
19.5561 -77.5136 0
19.2451 -78.7162 0
18.7572 -77.4899 0
19.5561 -77.5136 0
19.3022 -76.1038 0
18.7572 -77.4899 0
18.2195 -76.0167 0
19.9597 -79.9202 0
19.6361 -79.5871 0
19.9597 -80.1731 0
19.3264 -79.695 0
19.6361 -79.5871 0
19.2451 -78.7162 0
19.3264 -79.695 0
18.5463 -78.61 0
19.9597 -80.1731 0
19.3264 -79.695 0
19.9597 -80.2107 0
18.6416 -79.558 0
19.3264 -79.695 0
18.5463 -78.61 0
18.6416 -79.558 0
17.4688 -78.2936 0
19.2451 -78.7162 0
18.7572 -77.4899 0
18.5463 -78.61 0
17.7073 -77.3017 0
18.7572 -77.4899 0
18.2195 -76.0167 0
17.7073 -77.3017 0
16.8936 -75.8091 0
18.5463 -78.61 0
17.7073 -77.3017 0
17.4688 -78.2936 0
16.3991 -76.9966 0
17.7073 -77.3017 0
16.8936 -75.8091 0
16.3991 -76.9966 0
15.3635 -75.5063 0
20.2489 -76.0834 0
20.2275 -74.4555 0
19.3022 -76.1038 0
19.0199 -74.4328 0
20.2275 -74.4555 0
20.1937 -72.5594 0
19.0199 -74.4328 0
18.7319 -72.514 0
19.3022 -76.1038 0
19.0199 -74.4328 0
18.2195 -76.0167 0
17.6766 -74.3158 0
19.0199 -74.4328 0
18.7319 -72.514 0
17.6766 -74.3158 0
17.1429 -72.3834 0
20.1937 -72.5594 0
20.1588 -70.4063 0
18.7319 -72.514 0
18.4498 -70.3511 0
20.1588 -70.4063 0
20.1284 -68.0042 0
18.4498 -70.3511 0
18.1793 -67.947 0
18.7319 -72.514 0
18.4498 -70.3511 0
17.1429 -72.3834 0
16.6245 -70.2165 0
18.4498 -70.3511 0
18.1793 -67.947 0
16.6245 -70.2165 0
16.1241 -67.814 0
18.2195 -76.0167 0
17.6766 -74.3158 0
16.8936 -75.8091 0
16.1044 -74.1021 0
17.6766 -74.3158 0
17.1429 -72.3834 0
16.1044 -74.1021 0
15.3382 -72.1703 0
16.8936 -75.8091 0
16.1044 -74.1021 0
15.3635 -75.5063 0
14.3496 -73.8056 0
16.1044 -74.1021 0
15.3382 -72.1703 0
14.3496 -73.8056 0
13.3559 -71.8803 0
17.1429 -72.3834 0
16.6245 -70.2165 0
15.3382 -72.1703 0
14.5945 -70.0073 0
16.6245 -70.2165 0
16.1241 -67.814 0
14.5945 -70.0073 0
13.8735 -67.6106 0
15.3382 -72.1703 0
14.5945 -70.0073 0
13.3559 -71.8803 0
12.3833 -69.7245 0
14.5945 -70.0073 0
13.8735 -67.6106 0
12.3833 -69.7245 0
11.4337 -67.3356 0
11.2465 -67.4039 0
12.2203 -69.7808 0
13.6662 -67.681 0
14.3869 -70.0676 0
12.2203 -69.7808 0
13.23 -71.8968 0
14.3869 -70.0676 0
15.1298 -72.1935 0
13.6662 -67.681 0
14.3869 -70.0676 0
15.8579 -67.8738 0
16.328 -70.2668 0
14.3869 -70.0676 0
15.1298 -72.1935 0
16.328 -70.2668 0
16.8093 -72.4001 0
13.23 -71.8968 0
14.2758 -73.7368 0
15.1298 -72.1935 0
15.894 -74.0434 0
14.2758 -73.7368 0
15.357 -75.2831 0
15.894 -74.0434 0
16.6782 -75.5995 0
15.1298 -72.1935 0
15.894 -74.0434 0
16.8093 -72.4001 0
17.3021 -74.2588 0
15.894 -74.0434 0
16.6782 -75.5995 0
17.3021 -74.2588 0
17.8075 -75.8258 0
15.8579 -67.8738 0
16.328 -70.2668 0
17.8614 -67.9811 0
18.0792 -70.379 0
16.328 -70.2668 0
16.8093 -72.4001 0
18.0792 -70.379 0
18.2996 -72.5211 0
17.8614 -67.9811 0
18.0792 -70.379 0
19.7909 -68.0042 0
19.7606 -70.4063 0
18.0792 -70.379 0
18.2996 -72.5211 0
19.7606 -70.4063 0
19.7257 -72.5594 0
16.8093 -72.4001 0
17.3021 -74.2588 0
18.2996 -72.5211 0
18.526 -74.3949 0
17.3021 -74.2588 0
17.8075 -75.8258 0
18.526 -74.3949 0
18.7646 -75.9851 0
18.2996 -72.5211 0
18.526 -74.3949 0
19.7257 -72.5594 0
19.6918 -74.4555 0
18.526 -74.3949 0
18.7646 -75.9851 0
19.6918 -74.4555 0
19.6705 -76.0834 0
15.357 -75.2831 0
16.4718 -76.5165 0
16.6782 -75.5995 0
17.4804 -76.8419 0
16.4718 -76.5165 0
17.6158 -77.4167 0
17.4804 -76.8419 0
18.2976 -77.7499 0
16.6782 -75.5995 0
17.4804 -76.8419 0
17.8075 -75.8258 0
18.3267 -77.0811 0
17.4804 -76.8419 0
18.2976 -77.7499 0
18.3267 -77.0811 0
18.8601 -78.002 0
17.6158 -77.4167 0
18.7818 -77.9656 0
18.2976 -77.7499 0
19.1258 -78.3041 0
18.7818 -77.9656 0
19.9597 -78.1502 0
19.1258 -78.3041 0
19.9597 -78.4905 0
18.2976 -77.7499 0
19.1258 -78.3041 0
18.8601 -78.002 0
19.4062 -78.5664 0
19.1258 -78.3041 0
19.9597 -78.4905 0
19.4062 -78.5664 0
19.9597 -78.7567 0
17.8075 -75.8258 0
18.3267 -77.0811 0
18.7646 -75.9851 0
19.0232 -77.2724 0
18.3267 -77.0811 0
18.8601 -78.002 0
19.0232 -77.2724 0
19.3095 -78.2301 0
18.7646 -75.9851 0
19.0232 -77.2724 0
19.6705 -76.0834 0
19.6773 -77.4242 0
19.0232 -77.2724 0
19.3095 -78.2301 0
19.6773 -77.4242 0
19.727 -78.4456 0
18.8601 -78.002 0
19.4062 -78.5664 0
19.3095 -78.2301 0
19.6248 -78.8255 0
19.4062 -78.5664 0
19.9597 -78.7567 0
19.6248 -78.8255 0
19.9597 -79.0283 0
19.3095 -78.2301 0
19.6248 -78.8255 0
19.727 -78.4456 0
19.826 -79.0967 0
19.6248 -78.8255 0
19.9597 -79.0283 0
19.826 -79.0967 0
19.9597 -79.3224 0
19.7909 -68.0042 0
19.7606 -70.4063 0
21.7401 -67.947 0
21.4696 -70.3511 0
19.7606 -70.4063 0
19.7257 -72.5594 0
21.4696 -70.3511 0
21.1875 -72.514 0
21.7401 -67.947 0
21.4696 -70.3511 0
23.7952 -67.814 0
23.2948 -70.2165 0
21.4696 -70.3511 0
21.1875 -72.514 0
23.2948 -70.2165 0
22.7764 -72.3834 0
19.7257 -72.5594 0
19.6918 -74.4555 0
21.1875 -72.514 0
20.8995 -74.4328 0
19.6918 -74.4555 0
19.6705 -76.0834 0
20.8995 -74.4328 0
20.6172 -76.1038 0
21.1875 -72.514 0
20.8995 -74.4328 0
22.7764 -72.3834 0
22.2428 -74.3158 0
20.8995 -74.4328 0
20.6172 -76.1038 0
22.2428 -74.3158 0
21.6999 -76.0167 0
23.7952 -67.814 0
23.2948 -70.2165 0
26.0459 -67.6106 0
25.3249 -70.0073 0
23.2948 -70.2165 0
22.7764 -72.3834 0
25.3249 -70.0073 0
24.5812 -72.1703 0
26.0459 -67.6106 0
25.3249 -70.0073 0
28.4857 -67.3356 0
27.5361 -69.7245 0
25.3249 -70.0073 0
24.5812 -72.1703 0
27.5361 -69.7245 0
26.5635 -71.8803 0
22.7764 -72.3834 0
22.2428 -74.3158 0
24.5812 -72.1703 0
23.815 -74.1021 0
22.2428 -74.3158 0
21.6999 -76.0167 0
23.815 -74.1021 0
23.0258 -75.8091 0
24.5812 -72.1703 0
23.815 -74.1021 0
26.5635 -71.8803 0
25.5698 -73.8056 0
23.815 -74.1021 0
23.0258 -75.8091 0
25.5698 -73.8056 0
24.5559 -75.5063 0
19.6705 -76.0834 0
19.6773 -77.4242 0
20.6172 -76.1038 0
20.3633 -77.5136 0
19.6773 -77.4242 0
19.727 -78.4456 0
20.3633 -77.5136 0
20.1649 -78.6235 0
20.6172 -76.1038 0
20.3633 -77.5136 0
21.6999 -76.0167 0
21.1622 -77.4899 0
20.3633 -77.5136 0
20.1649 -78.6235 0
21.1622 -77.4899 0
20.6743 -78.7162 0
19.727 -78.4456 0
19.826 -79.0967 0
20.1649 -78.6235 0
20.0348 -79.3618 0
19.826 -79.0967 0
19.9597 -79.3224 0
20.0348 -79.3618 0
19.9597 -79.6272 0
20.1649 -78.6235 0
20.0348 -79.3618 0
20.6743 -78.7162 0
20.2833 -79.5871 0
20.0348 -79.3618 0
19.9597 -79.6272 0
20.2833 -79.5871 0
19.9597 -79.9202 0
21.6999 -76.0167 0
21.1622 -77.4899 0
23.0258 -75.8091 0
22.2121 -77.3017 0
21.1622 -77.4899 0
20.6743 -78.7162 0
22.2121 -77.3017 0
21.3731 -78.61 0
23.0258 -75.8091 0
22.2121 -77.3017 0
24.5559 -75.5063 0
23.5203 -76.9966 0
22.2121 -77.3017 0
21.3731 -78.61 0
23.5203 -76.9966 0
22.4506 -78.2936 0
20.6743 -78.7162 0
20.2833 -79.5871 0
21.3731 -78.61 0
20.5929 -79.695 0
20.2833 -79.5871 0
19.9597 -79.9202 0
20.5929 -79.695 0
19.9597 -80.1731 0
21.3731 -78.61 0
20.5929 -79.695 0
22.4506 -78.2936 0
21.2778 -79.558 0
20.5929 -79.695 0
19.9597 -80.1731 0
21.2778 -79.558 0
19.9597 -80.2107 0
4.73646 -40.383 0
5.42314 -44.4452 0
8.78714 -40.5767 0
9.30309 -44.6504 0
5.42314 -44.4452 0
6.1469 -48.3312 0
9.30309 -44.6504 0
9.84772 -48.5474 0
8.78714 -40.5767 0
9.30309 -44.6504 0
12.6022 -40.7092 0
12.9468 -44.7933 0
9.30309 -44.6504 0
9.84772 -48.5474 0
12.9468 -44.7933 0
13.3127 -48.6996 0
6.1469 -48.3312 0
6.9075 -52.0312 0
9.84772 -48.5474 0
10.4201 -52.2582 0
6.9075 -52.0312 0
7.70443 -55.5357 0
10.4201 -52.2582 0
11.0192 -55.7732 0
9.84772 -48.5474 0
10.4201 -52.2582 0
13.3127 -48.6996 0
13.6979 -52.4187 0
10.4201 -52.2582 0
11.0192 -55.7732 0
13.6979 -52.4187 0
14.1005 -55.9411 0
12.6022 -40.7092 0
12.9468 -44.7933 0
16.2674 -40.7781 0
16.4365 -44.8718 0
12.9468 -44.7933 0
13.3127 -48.6996 0