# vtk DataFile Version 3.0
#This file was generated by the deal.II library on 2020/9/2 at 8:41:15
ASCII
DATASET UNSTRUCTURED_GRID

POINTS 1536 double
5 0 0
5.125 0 0
5 0.125 0
5.125 0.125 0
5.125 0 0
5.25 0 0
5.125 0.125 0
5.25 0.125 0
5 0.125 0
5.125 0.125 0
5 0.25 0
5.125 0.25 0
5.125 0.125 0
5.25 0.125 0
5.125 0.25 0
5.25 0.25 0
5.25 0 0
5.375 0 0
5.25 0.125 0
5.375 0.125 0
5.375 0 0
5.5 0 0
5.375 0.125 0
5.5 0.125 0
5.25 0.125 0
5.375 0.125 0
5.25 0.25 0
5.375 0.25 0
5.375 0.125 0
5.5 0.125 0
5.375 0.25 0
5.5 0.25 0
5 0.25 0
5.125 0.25 0
5 0.375 0
5.125 0.375 0
5.125 0.25 0
5.25 0.25 0
5.125 0.375 0
5.25 0.375 0
5 0.375 0
5.125 0.375 0
5 0.5 0
5.125 0.5 0
5.125 0.375 0
5.25 0.375 0
5.125 0.5 0
5.25 0.5 0
5.25 0.25 0
5.375 0.25 0
5.25 0.375 0
5.375 0.375 0
5.375 0.25 0
5.5 0.25 0
5.375 0.375 0
5.5 0.375 0
5.25 0.375 0
5.375 0.375 0
5.25 0.5 0
5.375 0.5 0
5.375 0.375 0
5.5 0.375 0
5.375 0.5 0
5.5 0.5 0
5.5 0 0
5.625 0 0
5.5 0.125 0
5.625 0.125 0
5.625 0 0
5.75 0 0
5.625 0.125 0
5.75 0.125 0
5.5 0.125 0
5.625 0.125 0
5.5 0.25 0
5.625 0.25 0
5.625 0.125 0
5.75 0.125 0
5.625 0.25 0
5.75 0.25 0
5.75 0 0
5.875 0 0
5.75 0.125 0
5.875 0.125 0
5.875 0 0
6 0 0
5.875 0.125 0
6 0.125 0
5.75 0.125 0
5.875 0.125 0
5.75 0.25 0
5.875 0.25 0
5.875 0.125 0
6 0.125 0
5.875 0.25 0
6 0.25 0
5.5 0.25 0
5.625 0.25 0
5.5 0.375 0
5.625 0.375 0
5.625 0.25 0
5.75 0.25 0
5.625 0.375 0
5.75 0.375 0
5.5 0.375 0
5.625 0.375 0
5.5 0.5 0
5.625 0.5 0
5.625 0.375 0
5.75 0.375 0
5.625 0.5 0
5.75 0.5 0
5.75 0.25 0
5.875 0.25 0
5.75 0.375 0
5.875 0.375 0
5.875 0.25 0
6 0.25 0
5.875 0.375 0
6 0.375 0
5.75 0.375 0
5.875 0.375 0
5.75 0.5 0
5.875 0.5 0
5.875 0.375 0
6 0.375 0
5.875 0.5 0
6 0.5 0
5 0.5 0
5.125 0.5 0
5 0.625 0
5.125 0.625 0
5.125 0.5 0
5.25 0.5 0
5.125 0.625 0
5.25 0.625 0
5 0.625 0
5.125 0.625 0
5 0.75 0
5.125 0.75 0
5.125 0.625 0
5.25 0.625 0
5.125 0.75 0
5.25 0.75 0
5.25 0.5 0
5.375 0.5 0
5.25 0.625 0
5.375 0.625 0
5.375 0.5 0
5.5 0.5 0
5.375 0.625 0
5.5 0.625 0
5.25 0.625 0
5.375 0.625 0
5.25 0.75 0
5.375 0.75 0
5.375 0.625 0
5.5 0.625 0
5.375 0.75 0
5.5 0.75 0
5 0.75 0
5.125 0.75 0
5 0.875 0
5.125 0.875 0
5.125 0.75 0
5.25 0.75 0
5.125 0.875 0
5.25 0.875 0
5 0.875 0
5.125 0.875 0
5 1 0
5.125 1 0
5.125 0.875 0
5.25 0.875 0
5.125 1 0
5.25 1 0
5.25 0.75 0
5.375 0.75 0
5.25 0.875 0
5.375 0.875 0
5.375 0.75 0
5.5 0.75 0
5.375 0.875 0
5.5 0.875 0
5.25 0.875 0
5.375 0.875 0
5.25 1 0
5.375 1 0
5.375 0.875 0
5.5 0.875 0
5.375 1 0
5.5 1 0
5.5 0.5 0
5.625 0.5 0
5.5 0.625 0
5.625 0.625 0
5.625 0.5 0
5.75 0.5 0
5.625 0.625 0
5.75 0.625 0
5.5 0.625 0
5.625 0.625 0
5.5 0.75 0
5.625 0.75 0
5.625 0.625 0
5.75 0.625 0
5.625 0.75 0
5.75 0.75 0
5.75 0.5 0
5.875 0.5 0
5.75 0.625 0
5.875 0.625 0
5.875 0.5 0
6 0.5 0
5.875 0.625 0
6 0.625 0
5.75 0.625 0
5.875 0.625 0
5.75 0.75 0
5.875 0.75 0
5.875 0.625 0
6 0.625 0
5.875 0.75 0
6 0.75 0
5.5 0.75 0
5.625 0.75 0
5.5 0.875 0
5.625 0.875 0
5.625 0.75 0
5.75 0.75 0
5.625 0.875 0
5.75 0.875 0
5.5 0.875 0
5.625 0.875 0
5.5 1 0
5.625 1 0
5.625 0.875 0
5.75 0.875 0
5.625 1 0
5.75 1 0
5.75 0.75 0
5.875 0.75 0
5.75 0.875 0
5.875 0.875 0
5.875 0.75 0
6 0.75 0
5.875 0.875 0
6 0.875 0
5.75 0.875 0
5.875 0.875 0
5.75 1 0
5.875 1 0
5.875 0.875 0
6 0.875 0
5.875 1 0
6 1 0
4 0 0
4.125 0 0
4 0.125 0
4.125 0.125 0
4.125 0 0
4.25 0 0
4.125 0.125 0
4.25 0.125 0
4 0.125 0
4.125 0.125 0
4 0.25 0
4.125 0.25 0
4.125 0.125 0
4.25 0.125 0
4.125 0.25 0
4.25 0.25 0
4.25 0 0
4.375 0 0
4.25 0.125 0
4.375 0.125 0
4.375 0 0
4.5 0 0
4.375 0.125 0
4.5 0.125 0
4.25 0.125 0
4.375 0.125 0
4.25 0.25 0
4.375 0.25 0
4.375 0.125 0
4.5 0.125 0
4.375 0.25 0
4.5 0.25 0
4 0.25 0
4.125 0.25 0
4 0.375 0
4.125 0.375 0
4.125 0.25 0
4.25 0.25 0
4.125 0.375 0
4.25 0.375 0
4 0.375 0
4.125 0.375 0
4 0.5 0
4.125 0.5 0
4.125 0.375 0
4.25 0.375 0
4.125 0.5 0
4.25 0.5 0
4.25 0.25 0
4.375 0.25 0
4.25 0.375 0
4.375 0.375 0
4.375 0.25 0
4.5 0.25 0
4.375 0.375 0
4.5 0.375 0
4.25 0.375 0
4.375 0.375 0
4.25 0.5 0
4.375 0.5 0
4.375 0.375 0
4.5 0.375 0
4.375 0.5 0
4.5 0.5 0
4.5 0 0
4.625 0 0
4.5 0.125 0
4.625 0.125 0
4.625 0 0
4.75 0 0
4.625 0.125 0
4.75 0.125 0
4.5 0.125 0
4.625 0.125 0
4.5 0.25 0
4.625 0.25 0
4.625 0.125 0
4.75 0.125 0
4.625 0.25 0
4.75 0.25 0
4.75 0 0
4.875 0 0
4.75 0.125 0
4.875 0.125 0
4.875 0 0
5 0 0
4.875 0.125 0
5 0.125 0
4.75 0.125 0
4.875 0.125 0
4.75 0.25 0
4.875 0.25 0
4.875 0.125 0
5 0.125 0
4.875 0.25 0
5 0.25 0
4.5 0.25 0
4.625 0.25 0
4.5 0.375 0
4.625 0.375 0
4.625 0.25 0
4.75 0.25 0
4.625 0.375 0
4.75 0.375 0
4.5 0.375 0
4.625 0.375 0
4.5 0.5 0
4.625 0.5 0
4.625 0.375 0
4.75 0.375 0
4.625 0.5 0
4.75 0.5 0
4.75 0.25 0
4.875 0.25 0
4.75 0.375 0
4.875 0.375 0
4.875 0.25 0
5 0.25 0
4.875 0.375 0
5 0.375 0
4.75 0.375 0
4.875 0.375 0
4.75 0.5 0
4.875 0.5 0
4.875 0.375 0
5 0.375 0
4.875 0.5 0
5 0.5 0
4 0.5 0
4.125 0.5 0
4 0.625 0
4.125 0.625 0
4.125 0.5 0
4.25 0.5 0
4.125 0.625 0
4.25 0.625 0
4 0.625 0
4.125 0.625 0
4 0.75 0
4.125 0.75 0
4.125 0.625 0
4.25 0.625 0
4.125 0.75 0
4.25 0.75 0
4.25 0.5 0
4.375 0.5 0
4.25 0.625 0
4.375 0.625 0
4.375 0.5 0
4.5 0.5 0
4.375 0.625 0
4.5 0.625 0
4.25 0.625 0
4.375 0.625 0
4.25 0.75 0
4.375 0.75 0
4.375 0.625 0
4.5 0.625 0
4.375 0.75 0
4.5 0.75 0
4 0.75 0
4.125 0.75 0
4 0.875 0
4.125 0.875 0
4.125 0.75 0
4.25 0.75 0
4.125 0.875 0
4.25 0.875 0
4 0.875 0
4.125 0.875 0
4 1 0
4.125 1 0
4.125 0.875 0
4.25 0.875 0
4.125 1 0
4.25 1 0
4.25 0.75 0
4.375 0.75 0
4.25 0.875 0
4.375 0.875 0
4.375 0.75 0
4.5 0.75 0
4.375 0.875 0
4.5 0.875 0
4.25 0.875 0
4.375 0.875 0
4.25 1 0
4.375 1 0
4.375 0.875 0
4.5 0.875 0
4.375 1 0
4.5 1 0
4.5 0.5 0
4.625 0.5 0
4.5 0.625 0
4.625 0.625 0
4.625 0.5 0
4.75 0.5 0
4.625 0.625 0
4.75 0.625 0
4.5 0.625 0
4.625 0.625 0
4.5 0.75 0
4.625 0.75 0
4.625 0.625 0
4.75 0.625 0
4.625 0.75 0
4.75 0.75 0
4.75 0.5 0
4.875 0.5 0
4.75 0.625 0
4.875 0.625 0
4.875 0.5 0
5 0.5 0
4.875 0.625 0
5 0.625 0
4.75 0.625 0
4.875 0.625 0
4.75 0.75 0
4.875 0.75 0
4.875 0.625 0
5 0.625 0
4.875 0.75 0
5 0.75 0
4.5 0.75 0
4.625 0.75 0
4.5 0.875 0
4.625 0.875 0
4.625 0.75 0
4.75 0.75 0
4.625 0.875 0
4.75 0.875 0
4.5 0.875 0
4.625 0.875 0
4.5 1 0
4.625 1 0
4.625 0.875 0
4.75 0.875 0
4.625 1 0
4.75 1 0
4.75 0.75 0
4.875 0.75 0
4.75 0.875 0
4.875 0.875 0
4.875 0.75 0
5 0.75 0
4.875 0.875 0
5 0.875 0
4.75 0.875 0
4.875 0.875 0
4.75 1 0
4.875 1 0
4.875 0.875 0
5 0.875 0
4.875 1 0
5 1 0
3 0 0
3.125 0 0
3 0.125 0
3.125 0.125 0
3.125 0 0
3.25 0 0
3.125 0.125 0
3.25 0.125 0
3 0.125 0
3.125 0.125 0
3 0.25 0
3.125 0.25 0
3.125 0.125 0
3.25 0.125 0
3.125 0.25 0
3.25 0.25 0
3.25 0 0
3.375 0 0
3.25 0.125 0
3.375 0.125 0
3.375 0 0
3.5 0 0
3.375 0.125 0
3.5 0.125 0
3.25 0.125 0
3.375 0.125 0
3.25 0.25 0
3.375 0.25 0
3.375 0.125 0
3.5 0.125 0
3.375 0.25 0
3.5 0.25 0
3 0.25 0
3.125 0.25 0
3 0.375 0
3.125 0.375 0
3.125 0.25 0
3.25 0.25 0
3.125 0.375 0
3.25 0.375 0
3 0.375 0
3.125 0.375 0
3 0.5 0
3.125 0.5 0
3.125 0.375 0
3.25 0.375 0
3.125 0.5 0
3.25 0.5 0
3.25 0.25 0
3.375 0.25 0
3.25 0.375 0
3.375 0.375 0
3.375 0.25 0
3.5 0.25 0
3.375 0.375 0
3.5 0.375 0
3.25 0.375 0
3.375 0.375 0
3.25 0.5 0
3.375 0.5 0
3.375 0.375 0
3.5 0.375 0
3.375 0.5 0
3.5 0.5 0
3.5 0 0
3.625 0 0
3.5 0.125 0
3.625 0.125 0
3.625 0 0
3.75 0 0
3.625 0.125 0
3.75 0.125 0
3.5 0.125 0
3.625 0.125 0
3.5 0.25 0
3.625 0.25 0
3.625 0.125 0
3.75 0.125 0
3.625 0.25 0
3.75 0.25 0
3.75 0 0
3.875 0 0
3.75 0.125 0
3.875 0.125 0
3.875 0 0
4 0 0
3.875 0.125 0
4 0.125 0
3.75 0.125 0
3.875 0.125 0
3.75 0.25 0
3.875 0.25 0
3.875 0.125 0
4 0.125 0
3.875 0.25 0
4 0.25 0
3.5 0.25 0
3.625 0.25 0
3.5 0.375 0
3.625 0.375 0
3.625 0.25 0
3.75 0.25 0
3.625 0.375 0
3.75 0.375 0
3.5 0.375 0
3.625 0.375 0
3.5 0.5 0
3.625 0.5 0
3.625 0.375 0
3.75 0.375 0
3.625 0.5 0
3.75 0.5 0
3.75 0.25 0
3.875 0.25 0
3.75 0.375 0
3.875 0.375 0
3.875 0.25 0
4 0.25 0
3.875 0.375 0
4 0.375 0
3.75 0.375 0
3.875 0.375 0
3.75 0.5 0
3.875 0.5 0
3.875 0.375 0
4 0.375 0
3.875 0.5 0
4 0.5 0
3 0.5 0
3.125 0.5 0
3 0.625 0
3.125 0.625 0
3.125 0.5 0
3.25 0.5 0
3.125 0.625 0
3.25 0.625 0
3 0.625 0
3.125 0.625 0
3 0.75 0
3.125 0.75 0
3.125 0.625 0
3.25 0.625 0
3.125 0.75 0
3.25 0.75 0
3.25 0.5 0
3.375 0.5 0
3.25 0.625 0
3.375 0.625 0
3.375 0.5 0
3.5 0.5 0
3.375 0.625 0
3.5 0.625 0
3.25 0.625 0
3.375 0.625 0
3.25 0.75 0
3.375 0.75 0
3.375 0.625 0
3.5 0.625 0
3.375 0.75 0
3.5 0.75 0
3 0.75 0
3.125 0.75 0
3 0.875 0
3.125 0.875 0
3.125 0.75 0
3.25 0.75 0
3.125 0.875 0
3.25 0.875 0
3 0.875 0
3.125 0.875 0
3 1 0
3.125 1 0
3.125 0.875 0
3.25 0.875 0
3.125 1 0
3.25 1 0
3.25 0.75 0
3.375 0.75 0
3.25 0.875 0
3.375 0.875 0
3.375 0.75 0
3.5 0.75 0
3.375 0.875 0
3.5 0.875 0
3.25 0.875 0
3.375 0.875 0
3.25 1 0
3.375 1 0
3.375 0.875 0
3.5 0.875 0
3.375 1 0
3.5 1 0
3.5 0.5 0
3.625 0.5 0
3.5 0.625 0
3.625 0.625 0
3.625 0.5 0
3.75 0.5 0
3.625 0.625 0
3.75 0.625 0
3.5 0.625 0
3.625 0.625 0
3.5 0.75 0
3.625 0.75 0
3.625 0.625 0
3.75 0.625 0
3.625 0.75 0
3.75 0.75 0
3.75 0.5 0
3.875 0.5 0
3.75 0.625 0
3.875 0.625 0
3.875 0.5 0
4 0.5 0
3.875 0.625 0
4 0.625 0
3.75 0.625 0
3.875 0.625 0
3.75 0.75 0
3.875 0.75 0
3.875 0.625 0
4 0.625 0
3.875 0.75 0
4 0.75 0
3.5 0.75 0
3.625 0.75 0
3.5 0.875 0
3.625 0.875 0
3.625 0.75 0
3.75 0.75 0
3.625 0.875 0
3.75 0.875 0
3.5 0.875 0
3.625 0.875 0
3.5 1 0
3.625 1 0
3.625 0.875 0
3.75 0.875 0
3.625 1 0
3.75 1 0
3.75 0.75 0
3.875 0.75 0
3.75 0.875 0
3.875 0.875 0
3.875 0.75 0
4 0.75 0
3.875 0.875 0
4 0.875 0
3.75 0.875 0
3.875 0.875 0
3.75 1 0
3.875 1 0
3.875 0.875 0
4 0.875 0
3.875 1 0
4 1 0
2 0 0
2.125 0 0
2 0.125 0
2.125 0.125 0
2.125 0 0
2.25 0 0
2.125 0.125 0
2.25 0.125 0
2 0.125 0
2.125 0.125 0
2 0.25 0
2.125 0.25 0
2.125 0.125 0
2.25 0.125 0
2.125 0.25 0
2.25 0.25 0
2.25 0 0
2.375 0 0
2.25 0.125 0
2.375 0.125 0
2.375 0 0
2.5 0 0
2.375 0.125 0
2.5 0.125 0
2.25 0.125 0
2.375 0.125 0
2.25 0.25 0
2.375 0.25 0
2.375 0.125 0
2.5 0.125 0
2.375 0.25 0
2.5 0.25 0
2 0.25 0
2.125 0.25 0
2 0.375 0
2.125 0.375 0
2.125 0.25 0
2.25 0.25 0
2.125 0.375 0
2.25 0.375 0
2 0.375 0
2.125 0.375 0
2 0.5 0
2.125 0.5 0
2.125 0.375 0
2.25 0.375 0
2.125 0.5 0
2.25 0.5 0
2.25 0.25 0
2.375 0.25 0
2.25 0.375 0
2.375 0.375 0
2.375 0.25 0
[...]
POINT_DATA 1536
VECTORS displacements double
39.1323 -45.8882 0
39.8697 -41.033 0
34.4614 -46.1135 0
35.037 -41.2398 0
39.8697 -41.033 0
40.6014 -35.9991 0
35.037 -41.2398 0
35.564 -36.2113 0
34.4614 -46.1135 0
35.037 -41.2398 0
30.3787 -46.2896 0
30.7446 -41.3856 0
35.037 -41.2398 0
35.564 -36.2113 0
30.7446 -41.3856 0
31.0976 -36.3391 0
40.6014 -35.9991 0
41.284 -30.7832 0
35.564 -36.2113 0
36.0927 -30.9681 0
41.284 -30.7832 0
41.9797 -25.3931 0
36.0927 -30.9681 0
36.57 -25.5954 0
35.564 -36.2113 0
36.0927 -30.9681 0
31.0976 -36.3391 0
31.4319 -31.0934 0
36.0927 -30.9681 0
36.57 -25.5954 0
31.4319 -31.0934 0
31.7234 -25.6827 0
30.3787 -46.2896 0
30.7446 -41.3856 0
26.4192 -46.3566 0
26.6314 -41.4952 0
30.7446 -41.3856 0
31.0976 -36.3391 0
26.6314 -41.4952 0
26.7756 -36.3999 0
26.4192 -46.3566 0
26.6314 -41.4952 0
22.5692 -46.3968 0
22.5635 -41.4735 0
26.6314 -41.4952 0
26.7756 -36.3999 0
22.5635 -41.4735 0
22.5738 -36.4189 0
31.0976 -36.3391 0
31.4319 -31.0934 0
26.7756 -36.3999 0
26.9116 -31.1282 0
31.4319 -31.0934 0
31.7234 -25.6827 0
26.9116 -31.1282 0
27.0414 -25.695 0
26.7756 -36.3999 0
26.9116 -31.1282 0
22.5738 -36.4189 0
22.5052 -31.0862 0
26.9116 -31.1282 0
27.0414 -25.695 0
22.5052 -31.0862 0
22.4643 -25.6496 0
41.9797 -25.3931 0
42.6347 -19.8299 0
36.57 -25.5954 0
37.0546 -19.9851 0
42.6347 -19.8299 0
43.3996 -14.0131 0
37.0546 -19.9851 0
37.4182 -14.2433 0
36.57 -25.5954 0
37.0546 -19.9851 0
31.7234 -25.6827 0
31.9991 -20.0622 0
37.0546 -19.9851 0
37.4182 -14.2433 0
31.9991 -20.0622 0
32.1965 -14.2644 0
43.3996 -14.0131 0
44.223 -7.90247 0
37.4182 -14.2433 0
37.629 -7.81468 0
44.223 -7.90247 0
44.655 0 0
37.629 -7.81468 0
37.8345 -1.42673 0
37.4182 -14.2433 0
37.629 -7.81468 0
32.1965 -14.2644 0
32.2077 -8.11873 0
37.629 -7.81468 0
37.8345 -1.42673 0
32.2077 -8.11873 0
32.3363 -2.34547 0
31.7234 -25.6827 0
31.9991 -20.0622 0
27.0414 -25.695 0
27.1275 -20.0963 0
31.9991 -20.0622 0
32.1965 -14.2644 0
27.1275 -20.0963 0
27.0874 -14.3323 0
27.0414 -25.695 0
27.1275 -20.0963 0
22.4643 -25.6496 0
22.3587 -20.1313 0
27.1275 -20.0963 0
27.0874 -14.3323 0
22.3587 -20.1313 0
22.2215 -14.5271 0
32.1965 -14.2644 0
32.2077 -8.11873 0
27.0874 -14.3323 0
27.0806 -8.57674 0
32.2077 -8.11873 0
32.3363 -2.34547 0
27.0806 -8.57674 0
27.1316 -2.91329 0
27.0874 -14.3323 0
27.0806 -8.57674 0
22.2215 -14.5271 0
22.1511 -8.90748 0
27.0806 -8.57674 0
27.1316 -2.91329 0
22.1511 -8.90748 0
22.228 -3.54307 0
22.5692 -46.3968 0
22.5635 -41.4735 0
18.6979 -46.3324 0
18.5142 -41.4348 0
22.5635 -41.4735 0
22.5738 -36.4189 0
18.5142 -41.4348 0
18.2899 -36.2832 0
18.6979 -46.3324 0
18.5142 -41.4348 0
14.72 -46.1768 0
14.3676 -41.2789 0
18.5142 -41.4348 0
18.2899 -36.2832 0
14.3676 -41.2789 0
13.9853 -36.1781 0
22.5738 -36.4189 0
22.5052 -31.0862 0
18.2899 -36.2832 0
18.1209 -31.0218 0
22.5052 -31.0862 0
22.4643 -25.6496 0
18.1209 -31.0218 0
17.8867 -25.6433 0
18.2899 -36.2832 0
18.1209 -31.0218 0
13.9853 -36.1781 0
13.5779 -30.9536 0
18.1209 -31.0218 0
17.8867 -25.6433 0
13.5779 -30.9536 0
13.2171 -25.618 0
14.72 -46.1768 0
14.3676 -41.2789 0
10.5349 -45.9699 0
9.94272 -41.0939 0
14.3676 -41.2789 0
13.9853 -36.1781 0
9.94272 -41.0939 0
9.3873 -36.0558 0
10.5349 -45.9699 0
9.94272 -41.0939 0
5.94814 -45.7449 0
5.28258 -40.8827 0
9.94272 -41.0939 0
9.3873 -36.0558 0
5.28258 -40.8827 0
4.76578 -35.9575 0
13.9853 -36.1781 0
13.5779 -30.9536 0
9.3873 -36.0558 0
8.94856 -30.8659 0
13.5779 -30.9536 0
13.2171 -25.618 0
8.94856 -30.8659 0
8.61205 -25.6323 0
9.3873 -36.0558 0
8.94856 -30.8659 0
4.76578 -35.9575 0
4.22666 -30.8083 0
8.94856 -30.8659 0
8.61205 -25.6323 0
4.22666 -30.8083 0
3.65385 -25.5163 0
22.4643 -25.6496 0
22.3587 -20.1313 0
17.8867 -25.6433 0
17.6309 -20.1854 0
22.3587 -20.1313 0
22.2215 -14.5271 0
17.6309 -20.1854 0
17.4803 -14.6988 0
17.8867 -25.6433 0
17.6309 -20.1854 0
13.2171 -25.618 0
12.9913 -20.2548 0
17.6309 -20.1854 0
17.4803 -14.6988 0
12.9913 -20.2548 0
12.7952 -14.8137 0
22.2215 -14.5271 0
22.1511 -8.90748 0
17.4803 -14.6988 0
17.4091 -9.21096 0
22.1511 -8.90748 0
22.228 -3.54307 0
17.4091 -9.21096 0
17.4783 -4.06408 0
17.4803 -14.6988 0
17.4091 -9.21096 0
12.7952 -14.8137 0
12.7117 -9.4398 0
17.4091 -9.21096 0
17.4783 -4.06408 0
12.7117 -9.4398 0
12.7391 -4.37573 0
13.2171 -25.618 0
12.9913 -20.2548 0
8.61205 -25.6323 0
8.26583 -20.2492 0
12.9913 -20.2548 0
12.7952 -14.8137 0
8.26583 -20.2492 0
8.01623 -14.8456 0
8.61205 -25.6323 0
8.26583 -20.2492 0
3.65385 -25.5163 0
3.21135 -20.1607 0
8.26583 -20.2492 0
8.01623 -14.8456 0
3.21135 -20.1607 0
2.94063 -14.8078 0
12.7952 -14.8137 0
12.7117 -9.4398 0
8.01623 -14.8456 0
7.89394 -9.54978 0
12.7117 -9.4398 0
12.7391 -4.37573 0
7.89394 -9.54978 0
7.873 -4.47641 0
8.01623 -14.8456 0
7.89394 -9.54978 0
2.94063 -14.8078 0
2.84995 -9.56758 0
7.89394 -9.54978 0
7.873 -4.47641 0
2.84995 -9.56758 0
2.84401 -4.48298 0
31.9584 -77.1364 0
32.9823 -74.072 0
29.1487 -77.4337 0
29.8876 -74.3612 0
32.9823 -74.072 0
33.9569 -70.7375 0
29.8876 -74.3612 0
30.6136 -71.013 0
29.1487 -77.4337 0
29.8876 -74.3612 0
26.8081 -77.6316 0
27.2478 -74.5505 0
29.8876 -74.3612 0
30.6136 -71.013 0
27.2478 -74.5505 0
27.7022 -71.1947 0
33.9569 -70.7375 0
34.8997 -67.1634 0
30.6136 -71.013 0
31.3108 -67.4246 0
34.8997 -67.1634 0
35.8241 -63.3497 0
31.3108 -67.4246 0
31.9666 -63.6113 0
30.6136 -71.013 0
31.3108 -67.4246 0
27.7022 -71.1947 0
28.1692 -67.5856 0
31.3108 -67.4246 0
31.9666 -63.6113 0
28.1692 -67.5856 0
28.6392 -63.7604 0
26.8081 -77.6316 0
27.2478 -74.5505 0
24.6821 -77.7182 0
24.8406 -74.6328 0
27.2478 -74.5505 0
27.7022 -71.1947 0
24.8406 -74.6328 0
25.0251 -71.2692 0
24.6821 -77.7182 0
24.8406 -74.6328 0
22.6077 -77.6898 0
22.5047 -74.5988 0
24.8406 -74.6328 0
25.0251 -71.2692 0
22.5047 -74.5988 0
22.4514 -71.2423 0
27.7022 -71.1947 0
28.1692 -67.5856 0
25.0251 -71.2692 0
25.2415 -67.6621 0
28.1692 -67.5856 0
28.6392 -63.7604 0
25.2415 -67.6621 0
25.4718 -63.8329 0
25.0251 -71.2692 0
25.2415 -67.6621 0
22.4514 -71.2423 0
22.4303 -67.6491 0
25.2415 -67.6621 0
25.4718 -63.8329 0
22.4303 -67.6491 0
22.4378 -63.8216 0
35.8241 -63.3497 0
36.7013 -59.2889 0
31.9666 -63.6113 0
32.6229 -59.5395 0
36.7013 -59.2889 0
37.5355 -55.0206 0
32.6229 -59.5395 0
33.2679 -55.26 0
31.9666 -63.6113 0
32.6229 -59.5395 0
28.6392 -63.7604 0
29.0907 -59.7232 0
32.6229 -59.5395 0
33.2679 -55.26 0
29.0907 -59.7232 0
29.5336 -55.4393 0
37.5355 -55.0206 0
38.3486 -50.5585 0
33.2679 -55.26 0
33.8778 -50.7912 0
38.3486 -50.5585 0
39.1323 -45.8882 0
33.8778 -50.7912 0
34.4614 -46.1135 0
33.2679 -55.26 0
33.8778 -50.7912 0
29.5336 -55.4393 0
29.9574 -50.9507 0
33.8778 -50.7912 0
34.4614 -46.1135 0
29.9574 -50.9507 0
30.3787 -46.2896 0
28.6392 -63.7604 0
29.0907 -59.7232 0
25.4718 -63.8329 0
25.7223 -59.7926 0
29.0907 -59.7232 0
29.5336 -55.4393 0
25.7223 -59.7926 0
25.9749 -55.5464 0
25.4718 -63.8329 0
25.7223 -59.7926 0
22.4378 -63.8216 0
22.4428 -59.7854 0
25.7223 -59.7926 0
25.9749 -55.5464 0
22.4428 -59.7854 0
22.4819 -55.5414 0
29.5336 -55.4393 0
29.9574 -50.9507 0
25.9749 -55.5464 0
26.2106 -51.0701 0
29.9574 -50.9507 0
30.3787 -46.2896 0
26.2106 -51.0701 0
26.4192 -46.3566 0
25.9749 -55.5464 0
26.2106 -51.0701 0
22.4819 -55.5414 0
22.538 -51.0882 0
26.2106 -51.0701 0
26.4192 -46.3566 0
22.538 -51.0882 0
22.5692 -46.3968 0
22.6077 -77.6898 0
22.5047 -74.5988 0
20.4991 -77.549 0
20.1662 -74.4586 0
22.5047 -74.5988 0
22.4514 -71.2423 0
20.1662 -74.4586 0
19.887 -71.1316 0
20.4991 -77.549 0
20.1662 -74.4586 0
18.3067 -77.3172 0
17.7733 -74.2578 0
20.1662 -74.4586 0
19.887 -71.1316 0
17.7733 -74.2578 0
17.2644 -70.9499 0
22.4514 -71.2423 0
22.4303 -67.6491 0
19.887 -71.1316 0
19.6452 -67.5545 0
22.4303 -67.6491 0
22.4378 -63.8216 0
19.6452 -67.5545 0
19.4165 -63.7473 0
19.887 -71.1316 0
19.6452 -67.5545 0
17.2644 -70.9499 0
16.7848 -67.4022 0
19.6452 -67.5545 0
19.4165 -63.7473 0
16.7848 -67.4022 0
16.336 -63.6026 0
18.3067 -77.3172 0
17.7733 -74.2578 0
15.9399 -77.0615 0
15.1711 -74.0135 0
17.7733 -74.2578 0
17.2644 -70.9499 0
15.1711 -74.0135 0
14.4357 -70.7253 0
15.9399 -77.0615 0
15.1711 -74.0135 0
13.0756 -76.7623 0
12.081 -73.7232 0
15.1711 -74.0135 0
14.4357 -70.7253 0
12.081 -73.7232 0
11.1057 -70.4426 0
17.2644 -70.9499 0
16.7848 -67.4022 0
14.4357 -70.7253 0
13.7235 -67.1867 0
16.7848 -67.4022 0
16.336 -63.6026 0
13.7235 -67.1867 0
13.0401 -63.4067 0
14.4357 -70.7253 0
13.7235 -67.1867 0
11.1057 -70.4426 0
10.1591 -66.9146 0
13.7235 -67.1867 0
13.0401 -63.4067 0
10.1591 -66.9146 0
9.24146 -63.144 0
22.4378 -63.8216 0
22.4428 -59.7854 0
19.4165 -63.7473 0
19.2194 -59.7078 0
22.4428 -59.7854 0
22.4819 -55.5414 0
19.2194 -59.7078 0
19.0167 -55.4619 0
19.4165 -63.7473 0
19.2194 -59.7078 0
16.336 -63.6026 0
15.8993 -59.5774 0
19.2194 -59.7078 0
19.0167 -55.4619 0
15.8993 -59.5774 0
15.4897 -55.3231 0
22.4819 -55.5414 0
22.538 -51.0882 0
19.0167 -55.4619 0
18.8443 -51.0059 0
22.538 -51.0882 0
22.5692 -46.3968 0
18.8443 -51.0059 0
18.6979 -46.3324 0
19.0167 -55.4619 0
18.8443 -51.0059 0
15.4897 -55.3231 0
15.0928 -50.8511 0
18.8443 -51.0059 0
18.6979 -46.3324 0
15.0928 -50.8511 0
14.72 -46.1768 0
16.336 -63.6026 0
15.8993 -59.5774 0
13.0401 -63.4067 0
12.3835 -59.3855 0
15.8993 -59.5774 0
15.4897 -55.3231 0
12.3835 -59.3855 0
11.7454 -55.1306 0
13.0401 -63.4067 0
12.3835 -59.3855 0
9.24146 -63.144 0
8.35551 -59.1317 0
12.3835 -59.3855 0
11.7454 -55.1306 0
8.35551 -59.1317 0
7.50968 -54.8879 0
15.4897 -55.3231 0
15.0928 -50.8511 0
11.7454 -55.1306 0
11.1344 -50.6581 0
15.0928 -50.8511 0
14.72 -46.1768 0
11.1344 -50.6581 0
10.5349 -45.9699 0
11.7454 -55.1306 0
11.1344 -50.6581 0
7.50968 -54.8879 0
6.7008 -50.4227 0
11.1344 -50.6581 0
10.5349 -45.9699 0
6.7008 -50.4227 0
5.94814 -45.7449 0
22.3275 -89.0588 0
23.6166 -88.8653 0
22.3275 -89.4322 0
23.2521 -89.2371 0
23.6166 -88.8653 0
24.8934 -88.2909 0
23.2521 -89.2371 0
24.1739 -88.6582 0
22.3275 -89.4322 0
23.2521 -89.2371 0
22.3275 -89.9635 0
23.1244 -89.7395 0
23.2521 -89.2371 0
24.1739 -88.6582 0
23.1244 -89.7395 0
23.8551 -89.0718 0
24.8934 -88.2909 0
26.1487 -87.3512 0
24.1739 -88.6582 0
25.0873 -87.7109 0
26.1487 -87.3512 0
27.383 -86.0512 0
25.0873 -87.7109 0
25.9688 -86.4 0
24.1739 -88.6582 0
25.0873 -87.7109 0
23.8551 -89.0718 0
24.4752 -88.0437 0
25.0873 -87.7109 0
25.9688 -86.4 0
24.4752 -88.0437 0
24.9762 -86.6861 0
22.3275 -89.9635 0
23.1244 -89.7395 0
22.3275 -90.5434 0
22.9254 -90.2996 0
23.1244 -89.7395 0
23.8551 -89.0718 0
22.9254 -90.2996 0
23.453 -89.5961 0
22.3275 -90.5434 0
22.9254 -90.2996 0
22.3275 -91.1092 0
22.7082 -90.8513 0
22.9254 -90.2996 0
23.453 -89.5961 0
22.7082 -90.8513 0
23.0009 -90.0872 0
23.8551 -89.0718 0
24.4752 -88.0437 0
23.453 -89.5961 0
23.8391 -88.4339 0
24.4752 -88.0437 0
24.9762 -86.6861 0
23.8391 -88.4339 0
24.114 -86.987 0
23.453 -89.5961 0
23.8391 -88.4339 0
23.0009 -90.0872 0
23.1369 -88.8056 0
23.8391 -88.4339 0
24.114 -86.987 0
23.1369 -88.8056 0
23.1438 -87.1942 0
27.383 -86.0512 0
28.5951 -84.3689 0
25.9688 -86.4 0
26.8023 -84.7087 0
28.5951 -84.3689 0
29.7587 -82.3101 0
26.8023 -84.7087 0
27.6206 -82.6312 0
25.9688 -86.4 0
26.8023 -84.7087 0
24.9762 -86.6861 0
25.4719 -84.9501 0
26.8023 -84.7087 0
27.6206 -82.6312 0
25.4719 -84.9501 0
25.9342 -82.862 0
29.7587 -82.3101 0
30.8847 -79.8961 0
27.6206 -82.6312 0
28.3919 -80.2097 0
30.8847 -79.8961 0
31.9584 -77.1364 0
28.3919 -80.2097 0
29.1487 -77.4337 0
27.6206 -82.6312 0
28.3919 -80.2097 0
25.9342 -82.862 0
26.3592 -80.4025 0
28.3919 -80.2097 0
29.1487 -77.4337 0
26.3592 -80.4025 0
26.8081 -77.6316 0
24.9762 -86.6861 0
25.4719 -84.9501 0
24.114 -86.987 0
24.2939 -85.1419 0
25.4719 -84.9501 0
25.9342 -82.862 0
24.2939 -85.1419 0
24.4199 -82.9839 0
24.114 -86.987 0
24.2939 -85.1419 0
23.1438 -87.1942 0
23.0584 -85.2466 0
24.2939 -85.1419 0
24.4199 -82.9839 0
23.0584 -85.2466 0
22.9082 -83.0039 0
25.9342 -82.862 0
26.3592 -80.4025 0
24.4199 -82.9839 0
24.553 -80.4924 0
26.3592 -80.4025 0
26.8081 -77.6316 0
24.553 -80.4924 0
24.6821 -77.7182 0
24.4199 -82.9839 0
24.553 -80.4924 0
22.9082 -83.0039 0
22.7524 -80.496 0
24.553 -80.4924 0
24.6821 -77.7182 0
22.7524 -80.496 0
22.6077 -77.6898 0
22.3275 -91.1092 0
22.7082 -90.8513 0
22.3275 -91.683 0
22.4645 -91.3815 0
22.7082 -90.8513 0
23.0009 -90.0872 0
22.4645 -91.3815 0
22.5004 -90.5196 0
22.3275 -91.683 0
22.4645 -91.3815 0
22.3275 -92.2193 0
22.1153 -91.9071 0
22.4645 -91.3815 0
22.5004 -90.5196 0
22.1153 -91.9071 0
21.8092 -90.724 0
23.0009 -90.0872 0
23.1369 -88.8056 0
22.5004 -90.5196 0
22.3332 -89.0451 0
23.1369 -88.8056 0
23.1438 -87.1942 0
22.3332 -89.0451 0
22.065 -87.2779 0
22.5004 -90.5196 0
22.3332 -89.0451 0
21.8092 -90.724 0
21.3653 -89.1161 0
22.3332 -89.0451 0
22.065 -87.2779 0
21.3653 -89.1161 0
20.7982 -87.2239 0
22.3275 -92.2193 0
22.1153 -91.9071 0
22.3275 -92.7869 0
21.7023 -92.1053 0
22.1153 -91.9071 0
21.8092 -90.724 0
21.7023 -92.1053 0
20.9443 -90.6947 0
22.3275 -92.7869 0
21.7023 -92.1053 0
22.3275 -92.7484 0
20.8292 -91.9556 0
21.7023 -92.1053 0
20.9443 -90.6947 0
20.8292 -91.9556 0
19.5355 -90.3744 0
21.8092 -90.724 0
21.3653 -89.1161 0
20.9443 -90.6947 0
20.11 -88.9989 0
21.3653 -89.1161 0
20.7982 -87.2239 0
20.11 -88.9989 0
19.2515 -87.0507 0
20.9443 -90.6947 0
20.11 -88.9989 0
19.5355 -90.3744 0
18.3625 -88.675 0
20.11 -88.9989 0
19.2515 -87.0507 0
18.3625 -88.675 0
17.2513 -86.7279 0
23.1438 -87.1942 0
23.0584 -85.2466 0
22.065 -87.2779 0
21.6833 -85.2341 0
23.0584 -85.2466 0
22.9082 -83.0039 0
21.6833 -85.2341 0
21.2851 -82.9433 0
22.065 -87.2779 0
21.6833 -85.2341 0
20.7982 -87.2239 0
20.1962 -85.1293 0
21.6833 -85.2341 0
21.2851 -82.9433 0
20.1962 -85.1293 0
19.5294 -82.7723 0
22.9082 -83.0039 0
22.7524 -80.496 0
21.2851 -82.9433 0
20.8736 -80.39 0
22.7524 -80.496 0
22.6077 -77.6898 0
20.8736 -80.39 0
20.4991 -77.549 0
21.2851 -82.9433 0
20.8736 -80.39 0
19.5294 -82.7723 0
18.8788 -80.1255 0
20.8736 -80.39 0
20.4991 -77.549 0
18.8788 -80.1255 0
18.3067 -77.3172 0
20.7982 -87.2239 0
20.1962 -85.1293 0
19.2515 -87.0507 0
18.3999 -84.8755 0
20.1962 -85.1293 0
19.5294 -82.7723 0
18.3999 -84.8755 0
17.5601 -82.4832 0
19.2515 -87.0507 0
18.3999 -84.8755 0
17.2513 -86.7279 0
16.1722 -84.5576 0
18.3999 -84.8755 0
17.5601 -82.4832 0
16.1722 -84.5576 0
15.1188 -82.1707 0
19.5294 -82.7723 0
18.8788 -80.1255 0
17.5601 -82.4832 0
16.7365 -79.8787 0
18.8788 -80.1255 0
18.3067 -77.3172 0
16.7365 -79.8787 0
15.9399 -77.0615 0
17.5601 -82.4832 0
16.7365 -79.8787 0
15.1188 -82.1707 0
14.0887 -79.5735 0
16.7365 -79.8787 0
15.9399 -77.0615 0
14.0887 -79.5735 0
13.0756 -76.7623 0
12.6967 -77.1364 0
13.7703 -79.8961 0
15.5063 -77.4337 0
16.2632 -80.2097 0
13.7703 -79.8961 0
14.8964 -82.3101 0
16.2632 -80.2097 0
17.0345 -82.6312 0
15.5063 -77.4337 0
16.2632 -80.2097 0
17.847 -77.6316 0
18.2958 -80.4025 0
16.2632 -80.2097 0
17.0345 -82.6312 0
18.2958 -80.4025 0
18.7209 -82.862 0
14.8964 -82.3101 0
16.06 -84.3689 0
17.0345 -82.6312 0
17.8527 -84.7087 0
16.06 -84.3689 0
17.2721 -86.0512 0
17.8527 -84.7087 0
18.6862 -86.4 0
17.0345 -82.6312 0
17.8527 -84.7087 0
18.7209 -82.862 0
19.1832 -84.9501 0
17.8527 -84.7087 0
18.6862 -86.4 0
19.1832 -84.9501 0
19.6789 -86.6861 0
17.847 -77.6316 0
18.2958 -80.4025 0
19.9729 -77.7182 0
20.102 -80.4924 0
18.2958 -80.4025 0
18.7209 -82.862 0
20.102 -80.4924 0
20.2351 -82.9839 0
19.9729 -77.7182 0
20.102 -80.4924 0
22.0474 -77.6898 0
21.9027 -80.496 0
20.102 -80.4924 0
20.2351 -82.9839 0
21.9027 -80.496 0
21.7469 -83.0039 0
18.7209 -82.862 0
19.1832 -84.9501 0
20.2351 -82.9839 0
20.3612 -85.1419 0
19.1832 -84.9501 0
19.6789 -86.6861 0
20.3612 -85.1419 0
20.541 -86.987 0
20.2351 -82.9839 0
20.3612 -85.1419 0
21.7469 -83.0039 0
21.5966 -85.2466 0
20.3612 -85.1419 0
20.541 -86.987 0
21.5966 -85.2466 0
21.5113 -87.1942 0
17.2721 -86.0512 0
18.5064 -87.3512 0
18.6862 -86.4 0
19.5677 -87.7109 0
18.5064 -87.3512 0
19.7616 -88.2909 0
19.5677 -87.7109 0
20.4812 -88.6582 0
18.6862 -86.4 0
19.5677 -87.7109 0
19.6789 -86.6861 0
20.1799 -88.0437 0
19.5677 -87.7109 0
20.4812 -88.6582 0
20.1799 -88.0437 0
20.7999 -89.0718 0
19.7616 -88.2909 0
21.0384 -88.8653 0
20.4812 -88.6582 0
21.4029 -89.2371 0
21.0384 -88.8653 0
22.3275 -89.0588 0
21.4029 -89.2371 0
22.3275 -89.4322 0
20.4812 -88.6582 0
21.4029 -89.2371 0
20.7999 -89.0718 0
21.5306 -89.7395 0
21.4029 -89.2371 0
22.3275 -89.4322 0
21.5306 -89.7395 0
22.3275 -89.9635 0
19.6789 -86.6861 0
20.1799 -88.0437 0
20.541 -86.987 0
20.8159 -88.4339 0
20.1799 -88.0437 0
20.7999 -89.0718 0
20.8159 -88.4339 0
21.202 -89.5961 0
20.541 -86.987 0
20.8159 -88.4339 0
21.5113 -87.1942 0
21.5181 -88.8056 0
20.8159 -88.4339 0
21.202 -89.5961 0
21.5181 -88.8056 0
21.6541 -90.0872 0
20.7999 -89.0718 0
21.5306 -89.7395 0
21.202 -89.5961 0
21.7297 -90.2996 0
21.5306 -89.7395 0
22.3275 -89.9635 0
21.7297 -90.2996 0
22.3275 -90.5434 0
21.202 -89.5961 0
21.7297 -90.2996 0
21.6541 -90.0872 0
21.9469 -90.8513 0
21.7297 -90.2996 0
22.3275 -90.5434 0
21.9469 -90.8513 0
22.3275 -91.1092 0
22.0474 -77.6898 0
21.9027 -80.496 0
24.156 -77.549 0
23.7814 -80.39 0
21.9027 -80.496 0
21.7469 -83.0039 0
23.7814 -80.39 0
23.3699 -82.9433 0
24.156 -77.549 0
23.7814 -80.39 0
26.3483 -77.3172 0
25.7763 -80.1255 0
23.7814 -80.39 0
23.3699 -82.9433 0
25.7763 -80.1255 0
25.1256 -82.7723 0
21.7469 -83.0039 0
21.5966 -85.2466 0
23.3699 -82.9433 0
22.9718 -85.2341 0
21.5966 -85.2466 0
21.5113 -87.1942 0
22.9718 -85.2341 0
22.5901 -87.2779 0
23.3699 -82.9433 0
22.9718 -85.2341 0
25.1256 -82.7723 0
24.4588 -85.1293 0
22.9718 -85.2341 0
22.5901 -87.2779 0
24.4588 -85.1293 0
23.8568 -87.2239 0
26.3483 -77.3172 0
25.7763 -80.1255 0
28.7151 -77.0615 0
27.9186 -79.8787 0
25.7763 -80.1255 0
25.1256 -82.7723 0
27.9186 -79.8787 0
27.0949 -82.4832 0
28.7151 -77.0615 0
27.9186 -79.8787 0
31.5795 -76.7623 0
30.5664 -79.5735 0
27.9186 -79.8787 0
27.0949 -82.4832 0
30.5664 -79.5735 0
29.5363 -82.1707 0
25.1256 -82.7723 0
24.4588 -85.1293 0
27.0949 -82.4832 0
26.2552 -84.8755 0
24.4588 -85.1293 0
23.8568 -87.2239 0
26.2552 -84.8755 0
25.4035 -87.0507 0
27.0949 -82.4832 0
26.2552 -84.8755 0
29.5363 -82.1707 0
28.4829 -84.5576 0
26.2552 -84.8755 0
25.4035 -87.0507 0
28.4829 -84.5576 0
27.4038 -86.7279 0
21.5113 -87.1942 0
21.5181 -88.8056 0
22.5901 -87.2779 0
22.3218 -89.0451 0
21.5181 -88.8056 0
21.6541 -90.0872 0
22.3218 -89.0451 0
22.1547 -90.5196 0
22.5901 -87.2779 0
22.3218 -89.0451 0
23.8568 -87.2239 0
23.2898 -89.1161 0
22.3218 -89.0451 0
22.1547 -90.5196 0
23.2898 -89.1161 0
22.8458 -90.724 0
21.6541 -90.0872 0
21.9469 -90.8513 0
22.1547 -90.5196 0
22.1905 -91.3815 0
21.9469 -90.8513 0
22.3275 -91.1092 0
22.1905 -91.3815 0
22.3275 -91.683 0
22.1547 -90.5196 0
22.1905 -91.3815 0
22.8458 -90.724 0
22.5397 -91.9071 0
22.1905 -91.3815 0
22.3275 -91.683 0
22.5397 -91.9071 0
22.3275 -92.2193 0
23.8568 -87.2239 0
23.2898 -89.1161 0
25.4035 -87.0507 0
24.545 -88.9989 0
23.2898 -89.1161 0
22.8458 -90.724 0
24.545 -88.9989 0
23.7108 -90.6947 0
25.4035 -87.0507 0
24.545 -88.9989 0
27.4038 -86.7279 0
26.2925 -88.675 0
24.545 -88.9989 0
23.7108 -90.6947 0
26.2925 -88.675 0
25.1195 -90.3744 0
22.8458 -90.724 0
22.5397 -91.9071 0
23.7108 -90.6947 0
22.9528 -92.1053 0
22.5397 -91.9071 0
22.3275 -92.2193 0
22.9528 -92.1053 0
22.3275 -92.7869 0
23.7108 -90.6947 0
22.9528 -92.1053 0
25.1195 -90.3744 0
23.8258 -91.9556 0
22.9528 -92.1053 0
22.3275 -92.7869 0
23.8258 -91.9556 0
22.3275 -92.7484 0
5.52275 -45.8882 0
6.30647 -50.5585 0
10.1936 -46.1135 0
10.7772 -50.7912 0
6.30647 -50.5585 0
7.1195 -55.0206 0
10.7772 -50.7912 0
11.3872 -55.26 0
10.1936 -46.1135 0
10.7772 -50.7912 0
14.2764 -46.2896 0
14.6976 -50.9507 0
10.7772 -50.7912 0
11.3872 -55.26 0
14.6976 -50.9507 0
15.1215 -55.4393 0
7.1195 -55.0206 0
7.95376 -59.2889 0
11.3872 -55.26 0
12.0322 -59.5395 0
7.95376 -59.2889 0
8.83092 -63.3497 0
12.0322 -59.5395 0
12.6884 -63.6113 0
11.3872 -55.26 0
12.0322 -59.5395 0
15.1215 -55.4393 0
15.5644 -59.7232 0
12.0322 -59.5395 0
12.6884 -63.6113 0
15.5644 -59.7232 0
16.0158 -63.7604 0
14.2764 -46.2896 0
14.6976 -50.9507 0
18.2359 -46.3566 0
18.4444 -51.0701 0
14.6976 -50.9507 0
15.1215 -55.4393 0
18.4444 -51.0701 0