# vtk DataFile Version 3.0
#This file was generated by the deal.II library on 2020/9/2 at 8:41:47
ASCII
DATASET UNSTRUCTURED_GRID

POINTS 1536 double
5 0 0
5.125 0 0
5 0.125 0
5.125 0.125 0
5.125 0 0
5.25 0 0
5.125 0.125 0
5.25 0.125 0
5 0.125 0
5.125 0.125 0
5 0.25 0
5.125 0.25 0
5.125 0.125 0
5.25 0.125 0
5.125 0.25 0
5.25 0.25 0
5.25 0 0
5.375 0 0
5.25 0.125 0
5.375 0.125 0
5.375 0 0
5.5 0 0
5.375 0.125 0
5.5 0.125 0
5.25 0.125 0
5.375 0.125 0
5.25 0.25 0
5.375 0.25 0
5.375 0.125 0
5.5 0.125 0
5.375 0.25 0
5.5 0.25 0
5 0.25 0
5.125 0.25 0
5 0.375 0
5.125 0.375 0
5.125 0.25 0
5.25 0.25 0
5.125 0.375 0
5.25 0.375 0
5 0.375 0
5.125 0.375 0
5 0.5 0
5.125 0.5 0
5.125 0.375 0
5.25 0.375 0
5.125 0.5 0
5.25 0.5 0
5.25 0.25 0
5.375 0.25 0
5.25 0.375 0
5.375 0.375 0
5.375 0.25 0
5.5 0.25 0
5.375 0.375 0
5.5 0.375 0
5.25 0.375 0
5.375 0.375 0
5.25 0.5 0
5.375 0.5 0
5.375 0.375 0
5.5 0.375 0
5.375 0.5 0
5.5 0.5 0
5.5 0 0
5.625 0 0
5.5 0.125 0
5.625 0.125 0
5.625 0 0
5.75 0 0
5.625 0.125 0
5.75 0.125 0
5.5 0.125 0
5.625 0.125 0
5.5 0.25 0
5.625 0.25 0
5.625 0.125 0
5.75 0.125 0
5.625 0.25 0
5.75 0.25 0
5.75 0 0
5.875 0 0
5.75 0.125 0
5.875 0.125 0
5.875 0 0
6 0 0
5.875 0.125 0
6 0.125 0
5.75 0.125 0
5.875 0.125 0
5.75 0.25 0
5.875 0.25 0
5.875 0.125 0
6 0.125 0
5.875 0.25 0
6 0.25 0
5.5 0.25 0
5.625 0.25 0
5.5 0.375 0
5.625 0.375 0
5.625 0.25 0
5.75 0.25 0
5.625 0.375 0
5.75 0.375 0
5.5 0.375 0
5.625 0.375 0
5.5 0.5 0
5.625 0.5 0
5.625 0.375 0
5.75 0.375 0
5.625 0.5 0
5.75 0.5 0
5.75 0.25 0
5.875 0.25 0
5.75 0.375 0
5.875 0.375 0
5.875 0.25 0
6 0.25 0
5.875 0.375 0
6 0.375 0
5.75 0.375 0
5.875 0.375 0
5.75 0.5 0
5.875 0.5 0
5.875 0.375 0
6 0.375 0
5.875 0.5 0
6 0.5 0
5 0.5 0
5.125 0.5 0
5 0.625 0
5.125 0.625 0
5.125 0.5 0
5.25 0.5 0
5.125 0.625 0
5.25 0.625 0
5 0.625 0
5.125 0.625 0
5 0.75 0
5.125 0.75 0
5.125 0.625 0
5.25 0.625 0
5.125 0.75 0
5.25 0.75 0
5.25 0.5 0
5.375 0.5 0
5.25 0.625 0
5.375 0.625 0
5.375 0.5 0
5.5 0.5 0
5.375 0.625 0
5.5 0.625 0
5.25 0.625 0
5.375 0.625 0
5.25 0.75 0
5.375 0.75 0
5.375 0.625 0
5.5 0.625 0
5.375 0.75 0
5.5 0.75 0
5 0.75 0
5.125 0.75 0
5 0.875 0
5.125 0.875 0
5.125 0.75 0
5.25 0.75 0
5.125 0.875 0
5.25 0.875 0
5 0.875 0
5.125 0.875 0
5 1 0
5.125 1 0
5.125 0.875 0
5.25 0.875 0
5.125 1 0
5.25 1 0
5.25 0.75 0
5.375 0.75 0
5.25 0.875 0
5.375 0.875 0
5.375 0.75 0
5.5 0.75 0
5.375 0.875 0
5.5 0.875 0
5.25 0.875 0
5.375 0.875 0
5.25 1 0
5.375 1 0
5.375 0.875 0
5.5 0.875 0
5.375 1 0
5.5 1 0
5.5 0.5 0
5.625 0.5 0
5.5 0.625 0
5.625 0.625 0
5.625 0.5 0
5.75 0.5 0
5.625 0.625 0
5.75 0.625 0
5.5 0.625 0
5.625 0.625 0
5.5 0.75 0
5.625 0.75 0
5.625 0.625 0
5.75 0.625 0
5.625 0.75 0
5.75 0.75 0
5.75 0.5 0
5.875 0.5 0
5.75 0.625 0
5.875 0.625 0
5.875 0.5 0
6 0.5 0
5.875 0.625 0
6 0.625 0
5.75 0.625 0
5.875 0.625 0
5.75 0.75 0
5.875 0.75 0
5.875 0.625 0
6 0.625 0
5.875 0.75 0
6 0.75 0
5.5 0.75 0
5.625 0.75 0
5.5 0.875 0
5.625 0.875 0
5.625 0.75 0
5.75 0.75 0
5.625 0.875 0
5.75 0.875 0
5.5 0.875 0
5.625 0.875 0
5.5 1 0
5.625 1 0
5.625 0.875 0
5.75 0.875 0
5.625 1 0
5.75 1 0
5.75 0.75 0
5.875 0.75 0
5.75 0.875 0
5.875 0.875 0
5.875 0.75 0
6 0.75 0
5.875 0.875 0
6 0.875 0
5.75 0.875 0
5.875 0.875 0
5.75 1 0
5.875 1 0
5.875 0.875 0
6 0.875 0
5.875 1 0
6 1 0
4 0 0
4.125 0 0
4 0.125 0
4.125 0.125 0
4.125 0 0
4.25 0 0
4.125 0.125 0
4.25 0.125 0
4 0.125 0
4.125 0.125 0
4 0.25 0
4.125 0.25 0
4.125 0.125 0
4.25 0.125 0
4.125 0.25 0
4.25 0.25 0
4.25 0 0
4.375 0 0
4.25 0.125 0
4.375 0.125 0
4.375 0 0
4.5 0 0
4.375 0.125 0
4.5 0.125 0
4.25 0.125 0
4.375 0.125 0
4.25 0.25 0
4.375 0.25 0
4.375 0.125 0
4.5 0.125 0
4.375 0.25 0
4.5 0.25 0
4 0.25 0
4.125 0.25 0
4 0.375 0
4.125 0.375 0
4.125 0.25 0
4.25 0.25 0
4.125 0.375 0
4.25 0.375 0
4 0.375 0
4.125 0.375 0
4 0.5 0
4.125 0.5 0
4.125 0.375 0
4.25 0.375 0
4.125 0.5 0
4.25 0.5 0
4.25 0.25 0
4.375 0.25 0
4.25 0.375 0
4.375 0.375 0
4.375 0.25 0
4.5 0.25 0
4.375 0.375 0
4.5 0.375 0
4.25 0.375 0
4.375 0.375 0
4.25 0.5 0
4.375 0.5 0
4.375 0.375 0
4.5 0.375 0
4.375 0.5 0
4.5 0.5 0
4.5 0 0
4.625 0 0
4.5 0.125 0
4.625 0.125 0
4.625 0 0
4.75 0 0
4.625 0.125 0
4.75 0.125 0
4.5 0.125 0
4.625 0.125 0
4.5 0.25 0
4.625 0.25 0
4.625 0.125 0
4.75 0.125 0
4.625 0.25 0
4.75 0.25 0
4.75 0 0
4.875 0 0
4.75 0.125 0
4.875 0.125 0
4.875 0 0
5 0 0
4.875 0.125 0
5 0.125 0
4.75 0.125 0
4.875 0.125 0
4.75 0.25 0
4.875 0.25 0
4.875 0.125 0
5 0.125 0
4.875 0.25 0
5 0.25 0
4.5 0.25 0
4.625 0.25 0
4.5 0.375 0
4.625 0.375 0
4.625 0.25 0
4.75 0.25 0
4.625 0.375 0
4.75 0.375 0
4.5 0.375 0
4.625 0.375 0
4.5 0.5 0
4.625 0.5 0
4.625 0.375 0
4.75 0.375 0
4.625 0.5 0
4.75 0.5 0
4.75 0.25 0
4.875 0.25 0
4.75 0.375 0
4.875 0.375 0
4.875 0.25 0
5 0.25 0
4.875 0.375 0
5 0.375 0
4.75 0.375 0
4.875 0.375 0
4.75 0.5 0
4.875 0.5 0
4.875 0.375 0
5 0.375 0
4.875 0.5 0
5 0.5 0
4 0.5 0
4.125 0.5 0
4 0.625 0
4.125 0.625 0
4.125 0.5 0
4.25 0.5 0
4.125 0.625 0
4.25 0.625 0
4 0.625 0
4.125 0.625 0
4 0.75 0
4.125 0.75 0
4.125 0.625 0
4.25 0.625 0
4.125 0.75 0
4.25 0.75 0
4.25 0.5 0
4.375 0.5 0
4.25 0.625 0
4.375 0.625 0
4.375 0.5 0
4.5 0.5 0
4.375 0.625 0
4.5 0.625 0
4.25 0.625 0
4.375 0.625 0
4.25 0.75 0
4.375 0.75 0
4.375 0.625 0
4.5 0.625 0
4.375 0.75 0
4.5 0.75 0
4 0.75 0
4.125 0.75 0
4 0.875 0
4.125 0.875 0
4.125 0.75 0
4.25 0.75 0
4.125 0.875 0
4.25 0.875 0
4 0.875 0
4.125 0.875 0
4 1 0
4.125 1 0
4.125 0.875 0
4.25 0.875 0
4.125 1 0
4.25 1 0
4.25 0.75 0
4.375 0.75 0
4.25 0.875 0
4.375 0.875 0
4.375 0.75 0
4.5 0.75 0
4.375 0.875 0
4.5 0.875 0
4.25 0.875 0
4.375 0.875 0
4.25 1 0
4.375 1 0
4.375 0.875 0
4.5 0.875 0
4.375 1 0
4.5 1 0
4.5 0.5 0
4.625 0.5 0
4.5 0.625 0
4.625 0.625 0
4.625 0.5 0
4.75 0.5 0
4.625 0.625 0
4.75 0.625 0
4.5 0.625 0
4.625 0.625 0
4.5 0.75 0
4.625 0.75 0
4.625 0.625 0
4.75 0.625 0
4.625 0.75 0
4.75 0.75 0
4.75 0.5 0
4.875 0.5 0
4.75 0.625 0
4.875 0.625 0
4.875 0.5 0
5 0.5 0
4.875 0.625 0
5 0.625 0
4.75 0.625 0
4.875 0.625 0
4.75 0.75 0
4.875 0.75 0
4.875 0.625 0
5 0.625 0
4.875 0.75 0
5 0.75 0
4.5 0.75 0
4.625 0.75 0
4.5 0.875 0
4.625 0.875 0
4.625 0.75 0
4.75 0.75 0
4.625 0.875 0
4.75 0.875 0
4.5 0.875 0
4.625 0.875 0
4.5 1 0
4.625 1 0
4.625 0.875 0
4.75 0.875 0
4.625 1 0
4.75 1 0
4.75 0.75 0
4.875 0.75 0
4.75 0.875 0
4.875 0.875 0
4.875 0.75 0
5 0.75 0
4.875 0.875 0
5 0.875 0
4.75 0.875 0
4.875 0.875 0
4.75 1 0
4.875 1 0
4.875 0.875 0
5 0.875 0
4.875 1 0
5 1 0
3 0 0
3.125 0 0
3 0.125 0
3.125 0.125 0
3.125 0 0
3.25 0 0
3.125 0.125 0
3.25 0.125 0
3 0.125 0
3.125 0.125 0
3 0.25 0
3.125 0.25 0
3.125 0.125 0
3.25 0.125 0
3.125 0.25 0
3.25 0.25 0
3.25 0 0
3.375 0 0
3.25 0.125 0
3.375 0.125 0
3.375 0 0
3.5 0 0
3.375 0.125 0
3.5 0.125 0
3.25 0.125 0
3.375 0.125 0
3.25 0.25 0
3.375 0.25 0
3.375 0.125 0
3.5 0.125 0
3.375 0.25 0
3.5 0.25 0
3 0.25 0
3.125 0.25 0
3 0.375 0
3.125 0.375 0
3.125 0.25 0
3.25 0.25 0
3.125 0.375 0
3.25 0.375 0
3 0.375 0
3.125 0.375 0
3 0.5 0
3.125 0.5 0
3.125 0.375 0
3.25 0.375 0
3.125 0.5 0
3.25 0.5 0
3.25 0.25 0
3.375 0.25 0
3.25 0.375 0
3.375 0.375 0
3.375 0.25 0
3.5 0.25 0
3.375 0.375 0
3.5 0.375 0
3.25 0.375 0
3.375 0.375 0
3.25 0.5 0
3.375 0.5 0
3.375 0.375 0
3.5 0.375 0
3.375 0.5 0
3.5 0.5 0
3.5 0 0
3.625 0 0
3.5 0.125 0
3.625 0.125 0
3.625 0 0
3.75 0 0
3.625 0.125 0
3.75 0.125 0
3.5 0.125 0
3.625 0.125 0
3.5 0.25 0
3.625 0.25 0
3.625 0.125 0
3.75 0.125 0
3.625 0.25 0
3.75 0.25 0
3.75 0 0
3.875 0 0
3.75 0.125 0
3.875 0.125 0
3.875 0 0
4 0 0
3.875 0.125 0
4 0.125 0
3.75 0.125 0
3.875 0.125 0
3.75 0.25 0
3.875 0.25 0
3.875 0.125 0
4 0.125 0
3.875 0.25 0
4 0.25 0
3.5 0.25 0
3.625 0.25 0
3.5 0.375 0
3.625 0.375 0
3.625 0.25 0
3.75 0.25 0
3.625 0.375 0
3.75 0.375 0
3.5 0.375 0
3.625 0.375 0
3.5 0.5 0
3.625 0.5 0
3.625 0.375 0
3.75 0.375 0
3.625 0.5 0
3.75 0.5 0
3.75 0.25 0
3.875 0.25 0
3.75 0.375 0
3.875 0.375 0
3.875 0.25 0
4 0.25 0
3.875 0.375 0
4 0.375 0
3.75 0.375 0
3.875 0.375 0
3.75 0.5 0
3.875 0.5 0
3.875 0.375 0
4 0.375 0
3.875 0.5 0
4 0.5 0
3 0.5 0
3.125 0.5 0
3 0.625 0
3.125 0.625 0
3.125 0.5 0
3.25 0.5 0
3.125 0.625 0
3.25 0.625 0
3 0.625 0
3.125 0.625 0
3 0.75 0
3.125 0.75 0
3.125 0.625 0
3.25 0.625 0
3.125 0.75 0
3.25 0.75 0
3.25 0.5 0
3.375 0.5 0
3.25 0.625 0
3.375 0.625 0
3.375 0.5 0
3.5 0.5 0
3.375 0.625 0
3.5 0.625 0
3.25 0.625 0
3.375 0.625 0
3.25 0.75 0
3.375 0.75 0
3.375 0.625 0
3.5 0.625 0
3.375 0.75 0
3.5 0.75 0
3 0.75 0
3.125 0.75 0
3 0.875 0
3.125 0.875 0
3.125 0.75 0
3.25 0.75 0
3.125 0.875 0
3.25 0.875 0
3 0.875 0
3.125 0.875 0
3 1 0
3.125 1 0
3.125 0.875 0
3.25 0.875 0
3.125 1 0
3.25 1 0
3.25 0.75 0
3.375 0.75 0
3.25 0.875 0
3.375 0.875 0
3.375 0.75 0
3.5 0.75 0
3.375 0.875 0
3.5 0.875 0
3.25 0.875 0
3.375 0.875 0
3.25 1 0
3.375 1 0
3.375 0.875 0
3.5 0.875 0
3.375 1 0
3.5 1 0
3.5 0.5 0
3.625 0.5 0
3.5 0.625 0
3.625 0.625 0
3.625 0.5 0
3.75 0.5 0
3.625 0.625 0
3.75 0.625 0
3.5 0.625 0
3.625 0.625 0
3.5 0.75 0
3.625 0.75 0
3.625 0.625 0
3.75 0.625 0
3.625 0.75 0
3.75 0.75 0
3.75 0.5 0
3.875 0.5 0
3.75 0.625 0
3.875 0.625 0
3.875 0.5 0
4 0.5 0
3.875 0.625 0
4 0.625 0
3.75 0.625 0
3.875 0.625 0
3.75 0.75 0
3.875 0.75 0
3.875 0.625 0
4 0.625 0
3.875 0.75 0
4 0.75 0
3.5 0.75 0
3.625 0.75 0
3.5 0.875 0
3.625 0.875 0
3.625 0.75 0
3.75 0.75 0
3.625 0.875 0
3.75 0.875 0
3.5 0.875 0
3.625 0.875 0
3.5 1 0
3.625 1 0
3.625 0.875 0
3.75 0.875 0
3.625 1 0
3.75 1 0
3.75 0.75 0
3.875 0.75 0
3.75 0.875 0
3.875 0.875 0
3.875 0.75 0
4 0.75 0
3.875 0.875 0
4 0.875 0
3.75 0.875 0
3.875 0.875 0
3.75 1 0
3.875 1 0
3.875 0.875 0
4 0.875 0
3.875 1 0
4 1 0
2 0 0
2.125 0 0
2 0.125 0
2.125 0.125 0
2.125 0 0
2.25 0 0
2.125 0.125 0
2.25 0.125 0
2 0.125 0
2.125 0.125 0
2 0.25 0
2.125 0.25 0
2.125 0.125 0
2.25 0.125 0
2.125 0.25 0
2.25 0.25 0
2.25 0 0
2.375 0 0
2.25 0.125 0
2.375 0.125 0
2.375 0 0
2.5 0 0
2.375 0.125 0
2.5 0.125 0
2.25 0.125 0
2.375 0.125 0
2.25 0.25 0
2.375 0.25 0
2.375 0.125 0
2.5 0.125 0
2.375 0.25 0
2.5 0.25 0
2 0.25 0
2.125 0.25 0
2 0.375 0
2.125 0.375 0
2.125 0.25 0
2.25 0.25 0
2.125 0.375 0
2.25 0.375 0
2 0.375 0
2.125 0.375 0
2 0.5 0
2.125 0.5 0
2.125 0.375 0
2.25 0.375 0
2.125 0.5 0
2.25 0.5 0
2.25 0.25 0
2.375 0.25 0
2.25 0.375 0
2.375 0.375 0
2.375 0.25 0
[...]
POINT_DATA 1536
VECTORS displacements double
39.3924 -46.1716 0
40.1252 -41.2746 0
34.6693 -46.4012 0
35.2582 -41.4783 0
40.1252 -41.2746 0
40.8687 -36.2039 0
35.2582 -41.4783 0
35.7818 -36.4233 0
34.6693 -46.4012 0
35.2582 -41.4783 0
30.5935 -46.5889 0
30.9626 -41.6266 0
35.2582 -41.4783 0
35.7818 -36.4233 0
30.9626 -41.6266 0
31.3132 -36.5512 0
40.8687 -36.2039 0
41.5476 -30.9476 0
35.7818 -36.4233 0
36.3235 -31.129 0
41.5476 -30.9476 0
42.2548 -25.5199 0
36.3235 -31.129 0
36.7997 -25.7305 0
35.7818 -36.4233 0
36.3235 -31.129 0
31.3132 -36.5512 0
31.6612 -31.2568 0
36.3235 -31.129 0
36.7997 -25.7305 0
31.6612 -31.2568 0
31.9494 -25.8185 0
30.5935 -46.5889 0
30.9626 -41.6266 0
26.5989 -46.6377 0
26.8281 -41.7646 0
30.9626 -41.6266 0
31.3132 -36.5512 0
26.8281 -41.7646 0
26.9661 -36.6196 0
26.5989 -46.6377 0
26.8281 -41.7646 0
22.7411 -46.7039 0
22.7251 -41.7275 0
26.8281 -41.7646 0
26.9661 -36.6196 0
22.7251 -41.7275 0
22.761 -36.6631 0
31.3132 -36.5512 0
31.6612 -31.2568 0
26.9661 -36.6196 0
27.093 -31.2937 0
31.6612 -31.2568 0
31.9494 -25.8185 0
27.093 -31.2937 0
27.2434 -25.8294 0
26.9661 -36.6196 0
27.093 -31.2937 0
22.761 -36.6631 0
22.6865 -31.2531 0
27.093 -31.2937 0
27.2434 -25.8294 0
22.6865 -31.2531 0
22.6422 -25.7916 0
42.2548 -25.5199 0
42.9019 -19.9212 0
36.7997 -25.7305 0
37.3008 -20.0699 0
42.9019 -19.9212 0
43.6812 -14.0711 0
37.3008 -20.0699 0
37.6567 -14.3142 0
36.7997 -25.7305 0
37.3008 -20.0699 0
31.9494 -25.8185 0
32.2439 -20.1467 0
37.3008 -20.0699 0
37.6567 -14.3142 0
32.2439 -20.1467 0
32.4533 -14.3467 0
43.6812 -14.0711 0
44.4947 -7.91335 0
37.6567 -14.3142 0
37.8858 -7.81886 0
44.4947 -7.91335 0
44.9215 0 0
37.8858 -7.81886 0
38.1012 -1.43453 0
37.6567 -14.3142 0
37.8858 -7.81886 0
32.4533 -14.3467 0
32.4741 -8.14232 0
37.8858 -7.81886 0
38.1012 -1.43453 0
32.4741 -8.14232 0
32.5931 -2.32115 0
31.9494 -25.8185 0
32.2439 -20.1467 0
27.2434 -25.8294 0
27.3341 -20.2045 0
32.2439 -20.1467 0
32.4533 -14.3467 0
27.3341 -20.2045 0
27.3029 -14.41 0
27.2434 -25.8294 0
27.3341 -20.2045 0
22.6422 -25.7916 0
22.5438 -20.2504 0
27.3341 -20.2045 0
27.3029 -14.41 0
22.5438 -20.2504 0
22.3942 -14.613 0
32.4533 -14.3467 0
32.4741 -8.14232 0
27.3029 -14.41 0
27.2913 -8.61263 0
32.4741 -8.14232 0
32.5931 -2.32115 0
27.2913 -8.61263 0
27.3153 -2.83423 0
27.3029 -14.41 0
27.2913 -8.61263 0
22.3942 -14.613 0
22.3042 -8.92935 0
27.2913 -8.61263 0
27.3153 -2.83423 0
22.3042 -8.92935 0
22.391 -3.51608 0
22.7411 -46.7039 0
22.7251 -41.7275 0
18.8519 -46.6599 0
18.6717 -41.7109 0
22.7251 -41.7275 0
22.761 -36.6631 0
18.6717 -41.7109 0
18.4218 -36.5048 0
18.8519 -46.6599 0
18.6717 -41.7109 0
14.8392 -46.4981 0
14.5097 -41.5619 0
18.6717 -41.7109 0
18.4218 -36.5048 0
14.5097 -41.5619 0
14.1211 -36.402 0
22.761 -36.6631 0
22.6865 -31.2531 0
18.4218 -36.5048 0
18.2797 -31.2105 0
22.6865 -31.2531 0
22.6422 -25.7916 0
18.2797 -31.2105 0
18.0471 -25.7967 0
18.4218 -36.5048 0
18.2797 -31.2105 0
14.1211 -36.402 0
13.7069 -31.1475 0
18.2797 -31.2105 0
18.0471 -25.7967 0
13.7069 -31.1475 0
13.3391 -25.7793 0
14.8392 -46.4981 0
14.5097 -41.5619 0
10.6409 -46.2772 0
10.0414 -41.3651 0
14.5097 -41.5619 0
14.1211 -36.402 0
10.0414 -41.3651 0
9.48623 -36.2938 0
10.6409 -46.2772 0
10.0414 -41.3651 0
6.02687 -46.0501 0
5.36665 -41.1484 0
10.0414 -41.3651 0
9.48623 -36.2938 0
5.36665 -41.1484 0
4.90094 -36.2303 0
14.1211 -36.402 0
13.7069 -31.1475 0
9.48623 -36.2938 0
9.05615 -31.0629 0
13.7069 -31.1475 0
13.3391 -25.7793 0
9.05615 -31.0629 0
8.73967 -25.8198 0
9.48623 -36.2938 0
9.05615 -31.0629 0
4.90094 -36.2303 0
4.34207 -31.0184 0
9.05615 -31.0629 0
8.73967 -25.8198 0
4.34207 -31.0184 0
3.736 -25.6935 0
22.6422 -25.7916 0
22.5438 -20.2504 0
18.0471 -25.7967 0
17.7768 -20.3102 0
22.5438 -20.2504 0
22.3942 -14.613 0
17.7768 -20.3102 0
17.6214 -14.7902 0
18.0471 -25.7967 0
17.7768 -20.3102 0
13.3391 -25.7793 0
13.1232 -20.3946 0
17.7768 -20.3102 0
17.6214 -14.7902 0
13.1232 -20.3946 0
12.9191 -14.9015 0
22.3942 -14.613 0
22.3042 -8.92935 0
17.6214 -14.7902 0
17.5495 -9.24471 0
22.3042 -8.92935 0
22.391 -3.51608 0
17.5495 -9.24471 0
17.6214 -4.0665 0
17.6214 -14.7902 0
17.5495 -9.24471 0
12.9191 -14.9015 0
12.8319 -9.48389 0
17.5495 -9.24471 0
17.6214 -4.0665 0
12.8319 -9.48389 0
12.8609 -4.38733 0
13.3391 -25.7793 0
13.1232 -20.3946 0
8.73967 -25.8198 0
8.37387 -20.382 0
13.1232 -20.3946 0
12.9191 -14.9015 0
8.37387 -20.382 0
8.11371 -14.9328 0
8.73967 -25.8198 0
8.37387 -20.382 0
3.736 -25.6935 0
3.27866 -20.2896 0
8.37387 -20.382 0
8.11371 -14.9328 0
3.27866 -20.2896 0
3.00206 -14.8932 0
12.9191 -14.9015 0
12.8319 -9.48389 0
8.11371 -14.9328 0
7.98787 -9.59664 0
12.8319 -9.48389 0
12.8609 -4.38733 0
7.98787 -9.59664 0
7.96606 -4.49006 0
8.11371 -14.9328 0
7.98787 -9.59664 0
3.00206 -14.8932 0
2.91008 -9.61502 0
7.98787 -9.59664 0
7.96606 -4.49006 0
2.91008 -9.61502 0
2.90439 -4.49643 0
32.1824 -77.7291 0
33.2161 -74.6324 0
29.3547 -78.0239 0
30.0861 -74.9257 0
33.2161 -74.6324 0
34.1823 -71.2613 0
30.0861 -74.9257 0
30.8242 -71.5359 0
29.3547 -78.0239 0
30.0861 -74.9257 0
27.0114 -78.229 0
27.4389 -75.108 0
30.0861 -74.9257 0
30.8242 -71.5359 0
27.4389 -75.108 0
27.8848 -71.7278 0
34.1823 -71.2613 0
35.1307 -67.6612 0
30.8242 -71.5359 0
31.5201 -67.9164 0
35.1307 -67.6612 0
36.0775 -63.8097 0
31.5201 -67.9164 0
32.1507 -64.0762 0
30.8242 -71.5359 0
31.5201 -67.9164 0
27.8848 -71.7278 0
28.3507 -68.0645 0
31.5201 -67.9164 0
32.1507 -64.0762 0
28.3507 -68.0645 0
28.8332 -64.2138 0
27.0114 -78.229 0
27.4389 -75.108 0
24.8815 -78.3107 0
25.0215 -75.1916 0
27.4389 -75.108 0
27.8848 -71.7278 0
25.0215 -75.1916 0
25.1906 -71.7876 0
24.8815 -78.3107 0
25.0215 -75.1916 0
22.7814 -78.2651 0
22.6633 -75.1481 0
25.0215 -75.1916 0
25.1906 -71.7876 0
22.6633 -75.1481 0
22.6101 -71.7422 0
27.8848 -71.7278 0
28.3507 -68.0645 0
25.1906 -71.7876 0
25.4175 -68.1444 0
28.3507 -68.0645 0
28.8332 -64.2138 0
25.4175 -68.1444 0
25.6295 -64.2745 0
25.1906 -71.7876 0
25.4175 -68.1444 0
22.6101 -71.7422 0
22.5763 -68.1322 0
25.4175 -68.1444 0
25.6295 -64.2745 0
22.5763 -68.1322 0
22.6015 -64.2528 0
36.0775 -63.8097 0
36.9567 -59.6826 0
32.1507 -64.0762 0
32.813 -59.9343 0
36.9567 -59.6826 0
37.7767 -55.3676 0
32.813 -59.9343 0
33.479 -55.6056 0
32.1507 -64.0762 0
32.813 -59.9343 0
28.8332 -64.2138 0
29.2921 -60.1407 0
32.813 -59.9343 0
33.479 -55.6056 0
29.2921 -60.1407 0
29.7418 -55.7949 0
37.7767 -55.3676 0
38.597 -50.8809 0
33.479 -55.6056 0
34.0898 -51.116 0
38.597 -50.8809 0
39.3924 -46.1716 0
34.0898 -51.116 0
34.6693 -46.4012 0
33.479 -55.6056 0
34.0898 -51.116 0
29.7418 -55.7949 0
30.1612 -51.2682 0
34.0898 -51.116 0
34.6693 -46.4012 0
30.1612 -51.2682 0
30.5935 -46.5889 0
28.8332 -64.2138 0
29.2921 -60.1407 0
25.6295 -64.2745 0
25.8844 -60.2035 0
29.2921 -60.1407 0
29.7418 -55.7949 0
25.8844 -60.2035 0
26.147 -55.9242 0
25.6295 -64.2745 0
25.8844 -60.2035 0
22.6015 -64.2528 0
22.5633 -60.1924 0
25.8844 -60.2035 0
26.147 -55.9242 0
22.5633 -60.1924 0
22.6152 -55.9096 0
29.7418 -55.7949 0
30.1612 -51.2682 0
26.147 -55.9242 0
26.3862 -51.4127 0
30.1612 -51.2682 0
30.5935 -46.5889 0
26.3862 -51.4127 0
26.5989 -46.6377 0
26.147 -55.9242 0
26.3862 -51.4127 0
22.6152 -55.9096 0
22.7039 -51.4478 0
26.3862 -51.4127 0
26.5989 -46.6377 0
22.7039 -51.4478 0
22.7411 -46.7039 0
22.7814 -78.2651 0
22.6633 -75.1481 0
20.6433 -78.1026 0
20.2953 -74.9823 0
22.6633 -75.1481 0
22.6101 -71.7422 0
20.2953 -74.9823 0
20.0072 -71.6281 0
20.6433 -78.1026 0
20.2953 -74.9823 0
18.4169 -77.8549 0
17.885 -74.7663 0
20.2953 -74.9823 0
20.0072 -71.6281 0
17.885 -74.7663 0
17.3789 -71.4361 0
22.6101 -71.7422 0
22.5763 -68.1322 0
20.0072 -71.6281 0
19.772 -68.0239 0
22.5763 -68.1322 0
22.6015 -64.2528 0
19.772 -68.0239 0
19.5295 -64.1808 0
20.0072 -71.6281 0
19.772 -68.0239 0
17.3789 -71.4361 0
16.8951 -67.8653 0
19.772 -68.0239 0
19.5295 -64.1808 0
16.8951 -67.8653 0
16.4639 -64.0235 0
18.4169 -77.8549 0
17.885 -74.7663 0
16.0696 -77.5842 0
15.29 -74.5122 0
17.885 -74.7663 0
17.3789 -71.4361 0
15.29 -74.5122 0
14.5634 -71.2091 0
16.0696 -77.5842 0
15.29 -74.5122 0
13.175 -77.2819 0
12.1849 -74.2237 0
15.29 -74.5122 0
14.5634 -71.2091 0
12.1849 -74.2237 0
11.1986 -70.9217 0
17.3789 -71.4361 0
16.8951 -67.8653 0
14.5634 -71.2091 0
13.839 -67.6357 0
16.8951 -67.8653 0
16.4639 -64.0235 0
13.839 -67.6357 0
13.1555 -63.8387 0
14.5634 -71.2091 0
13.839 -67.6357 0
11.1986 -70.9217 0
10.2576 -67.3652 0
13.839 -67.6357 0
13.1555 -63.8387 0
10.2576 -67.3652 0
9.33506 -63.5754 0
22.6015 -64.2528 0
22.5633 -60.1924 0
19.5295 -64.1808 0
19.3739 -60.1069 0
22.5633 -60.1924 0
22.6152 -55.9096 0
19.3739 -60.1069 0
19.1495 -55.8338 0
19.5295 -64.1808 0
19.3739 -60.1069 0
16.4639 -64.0235 0
16.0163 -59.9847 0
19.3739 -60.1069 0
19.1495 -55.8338 0
16.0163 -59.9847 0
15.6174 -55.696 0
22.6152 -55.9096 0
22.7039 -51.4478 0
19.1495 -55.8338 0
18.9642 -51.3524 0
22.7039 -51.4478 0
22.7411 -46.7039 0
18.9642 -51.3524 0
18.8519 -46.6599 0
19.1495 -55.8338 0
18.9642 -51.3524 0
15.6174 -55.696 0
15.216 -51.1876 0
18.9642 -51.3524 0
18.8519 -46.6599 0
15.216 -51.1876 0
14.8392 -46.4981 0
16.4639 -64.0235 0
16.0163 -59.9847 0
13.1555 -63.8387 0
12.5062 -59.7896 0
16.0163 -59.9847 0
15.6174 -55.696 0
12.5062 -59.7896 0
11.8557 -55.4963 0
13.1555 -63.8387 0
12.5062 -59.7896 0
9.33506 -63.5754 0
8.43793 -59.5327 0
12.5062 -59.7896 0
11.8557 -55.4963 0
8.43793 -59.5327 0
7.59815 -55.2553 0
15.6174 -55.696 0
15.216 -51.1876 0
11.8557 -55.4963 0
11.2473 -51.0003 0
15.216 -51.1876 0
14.8392 -46.4981 0
11.2473 -51.0003 0
10.6409 -46.2772 0
11.8557 -55.4963 0
11.2473 -51.0003 0
7.59815 -55.2553 0
6.7801 -50.7619 0
11.2473 -51.0003 0
10.6409 -46.2772 0
6.7801 -50.7619 0
6.02687 -46.0501 0
22.4607 -89.5376 0
23.7565 -89.3553 0
22.4607 -89.916 0
23.412 -89.7323 0
23.7565 -89.3553 0
25.0413 -88.8138 0
23.412 -89.7323 0
24.3606 -89.1869 0
22.4607 -89.916 0
23.412 -89.7323 0
22.4607 -90.5265 0
23.3284 -90.3088 0
23.412 -89.7323 0
24.3606 -89.1869 0
23.3284 -90.3088 0
24.1207 -89.6516 0
25.0413 -88.8138 0
26.3066 -87.9274 0
24.3606 -89.1869 0
25.3016 -88.2931 0
26.3066 -87.9274 0
27.5616 -86.6819 0
25.3016 -88.2931 0
26.1884 -87.0341 0
24.3606 -89.1869 0
25.3016 -88.2931 0
24.1207 -89.6516 0
24.7813 -88.6448 0
25.3016 -88.2931 0
26.1884 -87.0341 0
24.7813 -88.6448 0
25.2332 -87.3331 0
22.4607 -90.5265 0
23.3284 -90.3088 0
22.4607 -91.1634 0
23.1216 -90.9253 0
23.3284 -90.3088 0
24.1207 -89.6516 0
23.1216 -90.9253 0
23.709 -90.2352 0
22.4607 -91.1634 0
23.1216 -90.9253 0
22.4607 -91.7819 0
22.8918 -91.5312 0
23.1216 -90.9253 0
23.709 -90.2352 0
22.8918 -91.5312 0
23.2315 -90.7874 0
24.1207 -89.6516 0
24.7813 -88.6448 0
23.709 -90.2352 0
24.1347 -89.0506 0
24.7813 -88.6448 0
25.2332 -87.3331 0
24.1347 -89.0506 0
24.4036 -87.6497 0
23.709 -90.2352 0
24.1347 -89.0506 0
23.2315 -90.7874 0
23.3895 -89.4518 0
24.1347 -89.0506 0
24.4036 -87.6497 0
23.3895 -89.4518 0
23.4022 -87.8522 0
27.5616 -86.6819 0
28.8028 -85.0137 0
26.1884 -87.0341 0
27.0036 -85.3597 0
28.8028 -85.0137 0
29.971 -82.9431 0
27.0036 -85.3597 0
27.8348 -83.2609 0
26.1884 -87.0341 0
27.0036 -85.3597 0
25.2332 -87.3331 0
25.712 -85.5838 0
27.0036 -85.3597 0
27.8348 -83.2609 0
25.712 -85.5838 0
26.1661 -83.497 0
29.971 -82.9431 0
31.1093 -80.515 0
27.8348 -83.2609 0
28.5932 -80.832 0
31.1093 -80.515 0
32.1824 -77.7291 0
28.5932 -80.832 0
29.3547 -78.0239 0
27.8348 -83.2609 0
28.5932 -80.832 0
26.1661 -83.497 0
26.5669 -81.0059 0
28.5932 -80.832 0
29.3547 -78.0239 0
26.5669 -81.0059 0
27.0114 -78.229 0
25.2332 -87.3331 0
25.712 -85.5838 0
24.4036 -87.6497 0
24.5582 -85.7718 0
25.712 -85.5838 0
26.1661 -83.497 0
24.5582 -85.7718 0
24.6568 -83.6126 0
24.4036 -87.6497 0
24.5582 -85.7718 0
23.4022 -87.8522 0
23.3123 -85.8912 0
24.5582 -85.7718 0
24.6568 -83.6126 0
23.3123 -85.8912 0
23.1331 -83.6138 0
26.1661 -83.497 0
26.5669 -81.0059 0
24.6568 -83.6126 0
24.7825 -81.0867 0
26.5669 -81.0059 0
27.0114 -78.229 0
24.7825 -81.0867 0
24.8815 -78.3107 0
24.6568 -83.6126 0
24.7825 -81.0867 0
23.1331 -83.6138 0
22.9586 -81.0993 0
24.7825 -81.0867 0
24.8815 -78.3107 0
22.9586 -81.0993 0
22.7814 -78.2651 0
22.4607 -91.7819 0
22.8918 -91.5312 0
22.4607 -92.4163 0
22.6364 -92.1115 0
22.8918 -91.5312 0
23.2315 -90.7874 0
22.6364 -92.1115 0
22.7158 -91.2864 0
22.4607 -92.4163 0
22.6364 -92.1115 0
22.4607 -92.9868 0
22.2376 -92.7092 0
22.6364 -92.1115 0
22.7158 -91.2864 0
22.2376 -92.7092 0
21.9545 -91.4857 0
23.2315 -90.7874 0
23.3895 -89.4518 0
22.7158 -91.2864 0
22.5479 -89.7301 0
23.3895 -89.4518 0
23.4022 -87.8522 0
22.5479 -89.7301 0
22.2852 -87.9327 0
22.7158 -91.2864 0
22.5479 -89.7301 0
21.9545 -91.4857 0
21.5357 -89.8273 0
22.5479 -89.7301 0
22.2852 -87.9327 0
21.5357 -89.8273 0
20.9665 -87.8712 0
22.4607 -92.9868 0
22.2376 -92.7092 0
22.4607 -93.6251 0
21.8216 -92.9083 0
22.2376 -92.7092 0
21.9545 -91.4857 0
21.8216 -92.9083 0
21.0769 -91.4701 0
22.4607 -93.6251 0
21.8216 -92.9083 0
22.4607 -93.5626 0
20.9495 -92.7593 0
21.8216 -92.9083 0
21.0769 -91.4701 0
20.9495 -92.7593 0
19.6481 -91.157 0
21.9545 -91.4857 0
21.5357 -89.8273 0
21.0769 -91.4701 0
20.2705 -89.7424 0
21.5357 -89.8273 0
20.9665 -87.8712 0
20.2705 -89.7424 0
19.4098 -87.7267 0
21.0769 -91.4701 0
20.2705 -89.7424 0
19.6481 -91.157 0
18.4529 -89.4161 0
20.2705 -89.7424 0
19.4098 -87.7267 0
18.4529 -89.4161 0
17.339 -87.403 0
23.4022 -87.8522 0
23.3123 -85.8912 0
22.2852 -87.9327 0
21.8711 -85.8634 0
23.3123 -85.8912 0
23.1331 -83.6138 0
21.8711 -85.8634 0
21.4606 -83.5524 0
22.2852 -87.9327 0
21.8711 -85.8634 0
20.9665 -87.8712 0
20.3673 -85.7565 0
21.8711 -85.8634 0
21.4606 -83.5524 0
20.3673 -85.7565 0
19.6738 -83.3623 0
23.1331 -83.6138 0
22.9586 -81.0993 0
21.4606 -83.5524 0
21.0218 -80.9834 0
22.9586 -81.0993 0
22.7814 -78.2651 0
21.0218 -80.9834 0
20.6433 -78.1026 0
21.4606 -83.5524 0
21.0218 -80.9834 0
19.6738 -83.3623 0
19.0046 -80.6547 0
21.0218 -80.9834 0
20.6433 -78.1026 0
19.0046 -80.6547 0
18.4169 -77.8549 0
20.9665 -87.8712 0
20.3673 -85.7565 0
19.4098 -87.7267 0
18.5501 -85.4884 0
20.3673 -85.7565 0
19.6738 -83.3623 0
18.5501 -85.4884 0
17.6962 -83.0491 0
19.4098 -87.7267 0
18.5501 -85.4884 0
17.339 -87.403 0
16.2626 -85.1694 0
18.5501 -85.4884 0
17.6962 -83.0491 0
16.2626 -85.1694 0
15.2178 -82.7359 0
19.6738 -83.3623 0
19.0046 -80.6547 0
17.6962 -83.0491 0
16.863 -80.4179 0
19.0046 -80.6547 0
18.4169 -77.8549 0
16.863 -80.4179 0
16.0696 -77.5842 0
17.6962 -83.0491 0
16.863 -80.4179 0
15.2178 -82.7359 0
14.1935 -80.1136 0
16.863 -80.4179 0
16.0696 -77.5842 0
14.1935 -80.1136 0
13.175 -77.2819 0
12.7391 -77.7291 0
13.8122 -80.515 0
15.5667 -78.0239 0
16.3282 -80.832 0
13.8122 -80.515 0
14.9505 -82.9431 0
16.3282 -80.832 0
17.0867 -83.2609 0
15.5667 -78.0239 0
16.3282 -80.832 0
17.9101 -78.229 0
18.3546 -81.0059 0
16.3282 -80.832 0
17.0867 -83.2609 0
18.3546 -81.0059 0
18.7554 -83.497 0
14.9505 -82.9431 0
16.1187 -85.0137 0
17.0867 -83.2609 0
17.9179 -85.3597 0
16.1187 -85.0137 0
17.3599 -86.6819 0
17.9179 -85.3597 0
18.7331 -87.0341 0
17.0867 -83.2609 0
17.9179 -85.3597 0
18.7554 -83.497 0
19.2095 -85.5838 0
17.9179 -85.3597 0
18.7331 -87.0341 0
19.2095 -85.5838 0
19.6883 -87.3331 0
17.9101 -78.229 0
18.3546 -81.0059 0
20.04 -78.3107 0
20.139 -81.0867 0
18.3546 -81.0059 0
18.7554 -83.497 0
20.139 -81.0867 0
20.2647 -83.6126 0
20.04 -78.3107 0
20.139 -81.0867 0
22.1401 -78.2651 0
21.9629 -81.0993 0
20.139 -81.0867 0
20.2647 -83.6126 0
21.9629 -81.0993 0
21.7884 -83.6138 0
18.7554 -83.497 0
19.2095 -85.5838 0
20.2647 -83.6126 0
20.3633 -85.7718 0
19.2095 -85.5838 0
19.6883 -87.3331 0
20.3633 -85.7718 0
20.5179 -87.6497 0
20.2647 -83.6126 0
20.3633 -85.7718 0
21.7884 -83.6138 0
21.6092 -85.8912 0
20.3633 -85.7718 0
20.5179 -87.6497 0
21.6092 -85.8912 0
21.5193 -87.8522 0
17.3599 -86.6819 0
18.6149 -87.9274 0
18.7331 -87.0341 0
19.6199 -88.2931 0
18.6149 -87.9274 0
19.8802 -88.8138 0
19.6199 -88.2931 0
20.5609 -89.1869 0
18.7331 -87.0341 0
19.6199 -88.2931 0
19.6883 -87.3331 0
20.1402 -88.6448 0
19.6199 -88.2931 0
20.5609 -89.1869 0
20.1402 -88.6448 0
20.8008 -89.6516 0
19.8802 -88.8138 0
21.165 -89.3553 0
20.5609 -89.1869 0
21.5095 -89.7323 0
21.165 -89.3553 0
22.4607 -89.5376 0
21.5095 -89.7323 0
22.4607 -89.916 0
20.5609 -89.1869 0
21.5095 -89.7323 0
20.8008 -89.6516 0
21.593 -90.3088 0
21.5095 -89.7323 0
22.4607 -89.916 0
21.593 -90.3088 0
22.4607 -90.5265 0
19.6883 -87.3331 0
20.1402 -88.6448 0
20.5179 -87.6497 0
20.7868 -89.0506 0
20.1402 -88.6448 0
20.8008 -89.6516 0
20.7868 -89.0506 0
21.2125 -90.2352 0
20.5179 -87.6497 0
20.7868 -89.0506 0
21.5193 -87.8522 0
21.532 -89.4518 0
20.7868 -89.0506 0
21.2125 -90.2352 0
21.532 -89.4518 0
21.69 -90.7874 0
20.8008 -89.6516 0
21.593 -90.3088 0
21.2125 -90.2352 0
21.7999 -90.9253 0
21.593 -90.3088 0
22.4607 -90.5265 0
21.7999 -90.9253 0
22.4607 -91.1634 0
21.2125 -90.2352 0
21.7999 -90.9253 0
21.69 -90.7874 0
22.0297 -91.5312 0
21.7999 -90.9253 0
22.4607 -91.1634 0
22.0297 -91.5312 0
22.4607 -91.7819 0
22.1401 -78.2651 0
21.9629 -81.0993 0
24.2782 -78.1026 0
23.8997 -80.9834 0
21.9629 -81.0993 0
21.7884 -83.6138 0
23.8997 -80.9834 0
23.4609 -83.5524 0
24.2782 -78.1026 0
23.8997 -80.9834 0
26.5046 -77.8549 0
25.9169 -80.6547 0
23.8997 -80.9834 0
23.4609 -83.5524 0
25.9169 -80.6547 0
25.2477 -83.3623 0
21.7884 -83.6138 0
21.6092 -85.8912 0
23.4609 -83.5524 0
23.0504 -85.8634 0
21.6092 -85.8912 0
21.5193 -87.8522 0
23.0504 -85.8634 0
22.6363 -87.9327 0
23.4609 -83.5524 0
23.0504 -85.8634 0
25.2477 -83.3623 0
24.5542 -85.7565 0
23.0504 -85.8634 0
22.6363 -87.9327 0
24.5542 -85.7565 0
23.955 -87.8712 0
26.5046 -77.8549 0
25.9169 -80.6547 0
28.8519 -77.5842 0
28.0585 -80.4179 0
25.9169 -80.6547 0
25.2477 -83.3623 0
28.0585 -80.4179 0
27.2253 -83.0491 0
28.8519 -77.5842 0
28.0585 -80.4179 0
31.7465 -77.2819 0
30.728 -80.1136 0
28.0585 -80.4179 0
27.2253 -83.0491 0
30.728 -80.1136 0
29.7037 -82.7359 0
25.2477 -83.3623 0
24.5542 -85.7565 0
27.2253 -83.0491 0
26.3714 -85.4884 0
24.5542 -85.7565 0
23.955 -87.8712 0
26.3714 -85.4884 0
25.5117 -87.7267 0
27.2253 -83.0491 0
26.3714 -85.4884 0
29.7037 -82.7359 0
28.6589 -85.1694 0
26.3714 -85.4884 0
25.5117 -87.7267 0
28.6589 -85.1694 0
27.5825 -87.403 0
21.5193 -87.8522 0
21.532 -89.4518 0
22.6363 -87.9327 0
22.3736 -89.7301 0
21.532 -89.4518 0
21.69 -90.7874 0
22.3736 -89.7301 0
22.2057 -91.2864 0
22.6363 -87.9327 0
22.3736 -89.7301 0
23.955 -87.8712 0
23.3858 -89.8273 0
22.3736 -89.7301 0
22.2057 -91.2864 0
23.3858 -89.8273 0
22.967 -91.4857 0
21.69 -90.7874 0
22.0297 -91.5312 0
22.2057 -91.2864 0
22.2851 -92.1115 0
22.0297 -91.5312 0
22.4607 -91.7819 0
22.2851 -92.1115 0
22.4607 -92.4163 0
22.2057 -91.2864 0
22.2851 -92.1115 0
22.967 -91.4857 0
22.6839 -92.7092 0
22.2851 -92.1115 0
22.4607 -92.4163 0
22.6839 -92.7092 0
22.4607 -92.9868 0
23.955 -87.8712 0
23.3858 -89.8273 0
25.5117 -87.7267 0
24.651 -89.7424 0
23.3858 -89.8273 0
22.967 -91.4857 0
24.651 -89.7424 0
23.8446 -91.4701 0
25.5117 -87.7267 0
24.651 -89.7424 0
27.5825 -87.403 0
26.4686 -89.4161 0
24.651 -89.7424 0
23.8446 -91.4701 0
26.4686 -89.4161 0
25.2734 -91.157 0
22.967 -91.4857 0
22.6839 -92.7092 0
23.8446 -91.4701 0
23.0998 -92.9083 0
22.6839 -92.7092 0
22.4607 -92.9868 0
23.0998 -92.9083 0
22.4607 -93.6251 0
23.8446 -91.4701 0
23.0998 -92.9083 0
25.2734 -91.157 0
23.972 -92.7593 0
23.0998 -92.9083 0
22.4607 -93.6251 0
23.972 -92.7593 0
22.4607 -93.5626 0
5.52912 -46.1716 0
6.32446 -50.8809 0
10.2522 -46.4012 0
10.8317 -51.116 0
6.32446 -50.8809 0
7.14483 -55.3676 0
10.8317 -51.116 0
11.4425 -55.6056 0
10.2522 -46.4012 0
10.8317 -51.116 0
14.328 -46.5889 0
14.7602 -51.2682 0
10.8317 -51.116 0
11.4425 -55.6056 0
14.7602 -51.2682 0
15.1797 -55.7949 0
7.14483 -55.3676 0
7.96482 -59.6826 0
11.4425 -55.6056 0
12.1085 -59.9343 0
7.96482 -59.6826 0
8.84394 -63.8097 0
12.1085 -59.9343 0
12.7708 -64.0762 0
11.4425 -55.6056 0
12.1085 -59.9343 0
15.1797 -55.7949 0
15.6294 -60.1407 0
12.1085 -59.9343 0
12.7708 -64.0762 0
15.6294 -60.1407 0
16.0883 -64.2138 0
14.328 -46.5889 0
14.7602 -51.2682 0
18.3226 -46.6377 0
18.5353 -51.4127 0
14.7602 -51.2682 0