# vtk DataFile Version 3.0
#This file was generated by the deal.II library on 2020/9/2 at 8:41:27
ASCII
DATASET UNSTRUCTURED_GRID

POINTS 1536 double
5 0 0
5.125 0 0
5 0.125 0
5.125 0.125 0
5.125 0 0
5.25 0 0
5.125 0.125 0
5.25 0.125 0
5 0.125 0
5.125 0.125 0
5 0.25 0
5.125 0.25 0
5.125 0.125 0
5.25 0.125 0
5.125 0.25 0
5.25 0.25 0
5.25 0 0
5.375 0 0
5.25 0.125 0
5.375 0.125 0
5.375 0 0
5.5 0 0
5.375 0.125 0
5.5 0.125 0
5.25 0.125 0
5.375 0.125 0
5.25 0.25 0
5.375 0.25 0
5.375 0.125 0
5.5 0.125 0
5.375 0.25 0
5.5 0.25 0
5 0.25 0
5.125 0.25 0
5 0.375 0
5.125 0.375 0
5.125 0.25 0
5.25 0.25 0
5.125 0.375 0
5.25 0.375 0
5 0.375 0
5.125 0.375 0
5 0.5 0
5.125 0.5 0
5.125 0.375 0
5.25 0.375 0
5.125 0.5 0
5.25 0.5 0
5.25 0.25 0
5.375 0.25 0
5.25 0.375 0
5.375 0.375 0
5.375 0.25 0
5.5 0.25 0
5.375 0.375 0
5.5 0.375 0
5.25 0.375 0
5.375 0.375 0
5.25 0.5 0
5.375 0.5 0
5.375 0.375 0
5.5 0.375 0
5.375 0.5 0
5.5 0.5 0
5.5 0 0
5.625 0 0
5.5 0.125 0
5.625 0.125 0
5.625 0 0
5.75 0 0
5.625 0.125 0
5.75 0.125 0
5.5 0.125 0
5.625 0.125 0
5.5 0.25 0
5.625 0.25 0
5.625 0.125 0
5.75 0.125 0
5.625 0.25 0
5.75 0.25 0
5.75 0 0
5.875 0 0
5.75 0.125 0
5.875 0.125 0
5.875 0 0
6 0 0
5.875 0.125 0
6 0.125 0
5.75 0.125 0
5.875 0.125 0
5.75 0.25 0
5.875 0.25 0
5.875 0.125 0
6 0.125 0
5.875 0.25 0
6 0.25 0
5.5 0.25 0
5.625 0.25 0
5.5 0.375 0
5.625 0.375 0
5.625 0.25 0
5.75 0.25 0
5.625 0.375 0
5.75 0.375 0
5.5 0.375 0
5.625 0.375 0
5.5 0.5 0
5.625 0.5 0
5.625 0.375 0
5.75 0.375 0
5.625 0.5 0
5.75 0.5 0
5.75 0.25 0
5.875 0.25 0
5.75 0.375 0
5.875 0.375 0
5.875 0.25 0
6 0.25 0
5.875 0.375 0
6 0.375 0
5.75 0.375 0
5.875 0.375 0
5.75 0.5 0
5.875 0.5 0
5.875 0.375 0
6 0.375 0
5.875 0.5 0
6 0.5 0
5 0.5 0
5.125 0.5 0
5 0.625 0
5.125 0.625 0
5.125 0.5 0
5.25 0.5 0
5.125 0.625 0
5.25 0.625 0
5 0.625 0
5.125 0.625 0
5 0.75 0
5.125 0.75 0
5.125 0.625 0
5.25 0.625 0
5.125 0.75 0
5.25 0.75 0
5.25 0.5 0
5.375 0.5 0
5.25 0.625 0
5.375 0.625 0
5.375 0.5 0
5.5 0.5 0
5.375 0.625 0
5.5 0.625 0
5.25 0.625 0
5.375 0.625 0
5.25 0.75 0
5.375 0.75 0
5.375 0.625 0
5.5 0.625 0
5.375 0.75 0
5.5 0.75 0
5 0.75 0
5.125 0.75 0
5 0.875 0
5.125 0.875 0
5.125 0.75 0
5.25 0.75 0
5.125 0.875 0
5.25 0.875 0
5 0.875 0
5.125 0.875 0
5 1 0
5.125 1 0
5.125 0.875 0
5.25 0.875 0
5.125 1 0
5.25 1 0
5.25 0.75 0
5.375 0.75 0
5.25 0.875 0
5.375 0.875 0
5.375 0.75 0
5.5 0.75 0
5.375 0.875 0
5.5 0.875 0
5.25 0.875 0
5.375 0.875 0
5.25 1 0
5.375 1 0
5.375 0.875 0
5.5 0.875 0
5.375 1 0
5.5 1 0
5.5 0.5 0
5.625 0.5 0
5.5 0.625 0
5.625 0.625 0
5.625 0.5 0
5.75 0.5 0
5.625 0.625 0
5.75 0.625 0
5.5 0.625 0
5.625 0.625 0
5.5 0.75 0
5.625 0.75 0
5.625 0.625 0
5.75 0.625 0
5.625 0.75 0
5.75 0.75 0
5.75 0.5 0
5.875 0.5 0
5.75 0.625 0
5.875 0.625 0
5.875 0.5 0
6 0.5 0
5.875 0.625 0
6 0.625 0
5.75 0.625 0
5.875 0.625 0
5.75 0.75 0
5.875 0.75 0
5.875 0.625 0
6 0.625 0
5.875 0.75 0
6 0.75 0
5.5 0.75 0
5.625 0.75 0
5.5 0.875 0
5.625 0.875 0
5.625 0.75 0
5.75 0.75 0
5.625 0.875 0
5.75 0.875 0
5.5 0.875 0
5.625 0.875 0
5.5 1 0
5.625 1 0
5.625 0.875 0
5.75 0.875 0
5.625 1 0
5.75 1 0
5.75 0.75 0
5.875 0.75 0
5.75 0.875 0
5.875 0.875 0
5.875 0.75 0
6 0.75 0
5.875 0.875 0
6 0.875 0
5.75 0.875 0
5.875 0.875 0
5.75 1 0
5.875 1 0
5.875 0.875 0
6 0.875 0
5.875 1 0
6 1 0
4 0 0
4.125 0 0
4 0.125 0
4.125 0.125 0
4.125 0 0
4.25 0 0
4.125 0.125 0
4.25 0.125 0
4 0.125 0
4.125 0.125 0
4 0.25 0
4.125 0.25 0
4.125 0.125 0
4.25 0.125 0
4.125 0.25 0
4.25 0.25 0
4.25 0 0
4.375 0 0
4.25 0.125 0
4.375 0.125 0
4.375 0 0
4.5 0 0
4.375 0.125 0
4.5 0.125 0
4.25 0.125 0
4.375 0.125 0
4.25 0.25 0
4.375 0.25 0
4.375 0.125 0
4.5 0.125 0
4.375 0.25 0
4.5 0.25 0
4 0.25 0
4.125 0.25 0
4 0.375 0
4.125 0.375 0
4.125 0.25 0
4.25 0.25 0
4.125 0.375 0
4.25 0.375 0
4 0.375 0
4.125 0.375 0
4 0.5 0
4.125 0.5 0
4.125 0.375 0
4.25 0.375 0
4.125 0.5 0
4.25 0.5 0
4.25 0.25 0
4.375 0.25 0
4.25 0.375 0
4.375 0.375 0
4.375 0.25 0
4.5 0.25 0
4.375 0.375 0
4.5 0.375 0
4.25 0.375 0
4.375 0.375 0
4.25 0.5 0
4.375 0.5 0
4.375 0.375 0
4.5 0.375 0
4.375 0.5 0
4.5 0.5 0
4.5 0 0
4.625 0 0
4.5 0.125 0
4.625 0.125 0
4.625 0 0
4.75 0 0
4.625 0.125 0
4.75 0.125 0
4.5 0.125 0
4.625 0.125 0
4.5 0.25 0
4.625 0.25 0
4.625 0.125 0
4.75 0.125 0
4.625 0.25 0
4.75 0.25 0
4.75 0 0
4.875 0 0
4.75 0.125 0
4.875 0.125 0
4.875 0 0
5 0 0
4.875 0.125 0
5 0.125 0
4.75 0.125 0
4.875 0.125 0
4.75 0.25 0
4.875 0.25 0
4.875 0.125 0
5 0.125 0
4.875 0.25 0
5 0.25 0
4.5 0.25 0
4.625 0.25 0
4.5 0.375 0
4.625 0.375 0
4.625 0.25 0
4.75 0.25 0
4.625 0.375 0
4.75 0.375 0
4.5 0.375 0
4.625 0.375 0
4.5 0.5 0
4.625 0.5 0
4.625 0.375 0
4.75 0.375 0
4.625 0.5 0
4.75 0.5 0
4.75 0.25 0
4.875 0.25 0
4.75 0.375 0
4.875 0.375 0
4.875 0.25 0
5 0.25 0
4.875 0.375 0
5 0.375 0
4.75 0.375 0
4.875 0.375 0
4.75 0.5 0
4.875 0.5 0
4.875 0.375 0
5 0.375 0
4.875 0.5 0
5 0.5 0
4 0.5 0
4.125 0.5 0
4 0.625 0
4.125 0.625 0
4.125 0.5 0
4.25 0.5 0
4.125 0.625 0
4.25 0.625 0
4 0.625 0
4.125 0.625 0
4 0.75 0
4.125 0.75 0
4.125 0.625 0
4.25 0.625 0
4.125 0.75 0
4.25 0.75 0
4.25 0.5 0
4.375 0.5 0
4.25 0.625 0
4.375 0.625 0
4.375 0.5 0
4.5 0.5 0
4.375 0.625 0
4.5 0.625 0
4.25 0.625 0
4.375 0.625 0
4.25 0.75 0
4.375 0.75 0
4.375 0.625 0
4.5 0.625 0
4.375 0.75 0
4.5 0.75 0
4 0.75 0
4.125 0.75 0
4 0.875 0
4.125 0.875 0
4.125 0.75 0
4.25 0.75 0
4.125 0.875 0
4.25 0.875 0
4 0.875 0
4.125 0.875 0
4 1 0
4.125 1 0
4.125 0.875 0
4.25 0.875 0
4.125 1 0
4.25 1 0
4.25 0.75 0
4.375 0.75 0
4.25 0.875 0
4.375 0.875 0
4.375 0.75 0
4.5 0.75 0
4.375 0.875 0
4.5 0.875 0
4.25 0.875 0
4.375 0.875 0
4.25 1 0
4.375 1 0
4.375 0.875 0
4.5 0.875 0
4.375 1 0
4.5 1 0
4.5 0.5 0
4.625 0.5 0
4.5 0.625 0
4.625 0.625 0
4.625 0.5 0
4.75 0.5 0
4.625 0.625 0
4.75 0.625 0
4.5 0.625 0
4.625 0.625 0
4.5 0.75 0
4.625 0.75 0
4.625 0.625 0
4.75 0.625 0
4.625 0.75 0
4.75 0.75 0
4.75 0.5 0
4.875 0.5 0
4.75 0.625 0
4.875 0.625 0
4.875 0.5 0
5 0.5 0
4.875 0.625 0
5 0.625 0
4.75 0.625 0
4.875 0.625 0
4.75 0.75 0
4.875 0.75 0
4.875 0.625 0
5 0.625 0
4.875 0.75 0
5 0.75 0
4.5 0.75 0
4.625 0.75 0
4.5 0.875 0
4.625 0.875 0
4.625 0.75 0
4.75 0.75 0
4.625 0.875 0
4.75 0.875 0
4.5 0.875 0
4.625 0.875 0
4.5 1 0
4.625 1 0
4.625 0.875 0
4.75 0.875 0
4.625 1 0
4.75 1 0
4.75 0.75 0
4.875 0.75 0
4.75 0.875 0
4.875 0.875 0
4.875 0.75 0
5 0.75 0
4.875 0.875 0
5 0.875 0
4.75 0.875 0
4.875 0.875 0
4.75 1 0
4.875 1 0
4.875 0.875 0
5 0.875 0
4.875 1 0
5 1 0
3 0 0
3.125 0 0
3 0.125 0
3.125 0.125 0
3.125 0 0
3.25 0 0
3.125 0.125 0
3.25 0.125 0
3 0.125 0
3.125 0.125 0
3 0.25 0
3.125 0.25 0
3.125 0.125 0
3.25 0.125 0
3.125 0.25 0
3.25 0.25 0
3.25 0 0
3.375 0 0
3.25 0.125 0
3.375 0.125 0
3.375 0 0
3.5 0 0
3.375 0.125 0
3.5 0.125 0
3.25 0.125 0
3.375 0.125 0
3.25 0.25 0
3.375 0.25 0
3.375 0.125 0
3.5 0.125 0
3.375 0.25 0
3.5 0.25 0
3 0.25 0
3.125 0.25 0
3 0.375 0
3.125 0.375 0
3.125 0.25 0
3.25 0.25 0
3.125 0.375 0
3.25 0.375 0
3 0.375 0
3.125 0.375 0
3 0.5 0
3.125 0.5 0
3.125 0.375 0
3.25 0.375 0
3.125 0.5 0
3.25 0.5 0
3.25 0.25 0
3.375 0.25 0
3.25 0.375 0
3.375 0.375 0
3.375 0.25 0
3.5 0.25 0
3.375 0.375 0
3.5 0.375 0
3.25 0.375 0
3.375 0.375 0
3.25 0.5 0
3.375 0.5 0
3.375 0.375 0
3.5 0.375 0
3.375 0.5 0
3.5 0.5 0
3.5 0 0
3.625 0 0
3.5 0.125 0
3.625 0.125 0
3.625 0 0
3.75 0 0
3.625 0.125 0
3.75 0.125 0
3.5 0.125 0
3.625 0.125 0
3.5 0.25 0
3.625 0.25 0
3.625 0.125 0
3.75 0.125 0
3.625 0.25 0
3.75 0.25 0
3.75 0 0
3.875 0 0
3.75 0.125 0
3.875 0.125 0
3.875 0 0
4 0 0
3.875 0.125 0
4 0.125 0
3.75 0.125 0
3.875 0.125 0
3.75 0.25 0
3.875 0.25 0
3.875 0.125 0
4 0.125 0
3.875 0.25 0
4 0.25 0
3.5 0.25 0
3.625 0.25 0
3.5 0.375 0
3.625 0.375 0
3.625 0.25 0
3.75 0.25 0
3.625 0.375 0
3.75 0.375 0
3.5 0.375 0
3.625 0.375 0
3.5 0.5 0
3.625 0.5 0
3.625 0.375 0
3.75 0.375 0
3.625 0.5 0
3.75 0.5 0
3.75 0.25 0
3.875 0.25 0
3.75 0.375 0
3.875 0.375 0
3.875 0.25 0
4 0.25 0
3.875 0.375 0
4 0.375 0
3.75 0.375 0
3.875 0.375 0
3.75 0.5 0
3.875 0.5 0
3.875 0.375 0
4 0.375 0
3.875 0.5 0
4 0.5 0
3 0.5 0
3.125 0.5 0
3 0.625 0
3.125 0.625 0
3.125 0.5 0
3.25 0.5 0
3.125 0.625 0
3.25 0.625 0
3 0.625 0
3.125 0.625 0
3 0.75 0
3.125 0.75 0
3.125 0.625 0
3.25 0.625 0
3.125 0.75 0
3.25 0.75 0
3.25 0.5 0
3.375 0.5 0
3.25 0.625 0
3.375 0.625 0
3.375 0.5 0
3.5 0.5 0
3.375 0.625 0
3.5 0.625 0
3.25 0.625 0
3.375 0.625 0
3.25 0.75 0
3.375 0.75 0
3.375 0.625 0
3.5 0.625 0
3.375 0.75 0
3.5 0.75 0
3 0.75 0
3.125 0.75 0
3 0.875 0
3.125 0.875 0
3.125 0.75 0
3.25 0.75 0
3.125 0.875 0
3.25 0.875 0
3 0.875 0
3.125 0.875 0
3 1 0
3.125 1 0
3.125 0.875 0
3.25 0.875 0
3.125 1 0
3.25 1 0
3.25 0.75 0
3.375 0.75 0
3.25 0.875 0
3.375 0.875 0
3.375 0.75 0
3.5 0.75 0
3.375 0.875 0
3.5 0.875 0
3.25 0.875 0
3.375 0.875 0
3.25 1 0
3.375 1 0
3.375 0.875 0
3.5 0.875 0
3.375 1 0
3.5 1 0
3.5 0.5 0
3.625 0.5 0
3.5 0.625 0
3.625 0.625 0
3.625 0.5 0
3.75 0.5 0
3.625 0.625 0
3.75 0.625 0
3.5 0.625 0
3.625 0.625 0
3.5 0.75 0
3.625 0.75 0
3.625 0.625 0
3.75 0.625 0
3.625 0.75 0
3.75 0.75 0
3.75 0.5 0
3.875 0.5 0
3.75 0.625 0
3.875 0.625 0
3.875 0.5 0
4 0.5 0
3.875 0.625 0
4 0.625 0
3.75 0.625 0
3.875 0.625 0
3.75 0.75 0
3.875 0.75 0
3.875 0.625 0
4 0.625 0
3.875 0.75 0
4 0.75 0
3.5 0.75 0
3.625 0.75 0
3.5 0.875 0
3.625 0.875 0
3.625 0.75 0
3.75 0.75 0
3.625 0.875 0
3.75 0.875 0
3.5 0.875 0
3.625 0.875 0
3.5 1 0
3.625 1 0
3.625 0.875 0
3.75 0.875 0
3.625 1 0
3.75 1 0
3.75 0.75 0
3.875 0.75 0
3.75 0.875 0
3.875 0.875 0
3.875 0.75 0
4 0.75 0
3.875 0.875 0
4 0.875 0
3.75 0.875 0
3.875 0.875 0
3.75 1 0
3.875 1 0
3.875 0.875 0
4 0.875 0
3.875 1 0
4 1 0
2 0 0
2.125 0 0
2 0.125 0
2.125 0.125 0
2.125 0 0
2.25 0 0
2.125 0.125 0
2.25 0.125 0
2 0.125 0
2.125 0.125 0
2 0.25 0
2.125 0.25 0
2.125 0.125 0
2.25 0.125 0
2.125 0.25 0
2.25 0.25 0
2.25 0 0
2.375 0 0
2.25 0.125 0
2.375 0.125 0
2.375 0 0
2.5 0 0
2.375 0.125 0
2.5 0.125 0
2.25 0.125 0
2.375 0.125 0
2.25 0.25 0
2.375 0.25 0
2.375 0.125 0
2.5 0.125 0
2.375 0.25 0
2.5 0.25 0
2 0.25 0
2.125 0.25 0
2 0.375 0
2.125 0.375 0
2.125 0.25 0
2.25 0.25 0
2.125 0.375 0
2.25 0.375 0
2 0.375 0
2.125 0.375 0
2 0.5 0
2.125 0.5 0
2.125 0.375 0
2.25 0.375 0
2.125 0.5 0
2.25 0.5 0
2.25 0.25 0
2.375 0.25 0
2.25 0.375 0
2.375 0.375 0
2.375 0.25 0
[...]
POINT_DATA 1536
VECTORS displacements double
39.2567 -46.0296 0
39.993 -41.1545 0
34.562 -46.2567 0
35.1433 -41.3604 0
39.993 -41.1545 0
40.7298 -36.1026 0
35.1433 -41.3604 0
35.6698 -36.3178 0
34.562 -46.2567 0
35.1433 -41.3604 0
30.4808 -46.4388 0
30.8482 -41.5071 0
35.1433 -41.3604 0
35.6698 -36.3178 0
30.8482 -41.5071 0
31.2005 -36.4463 0
40.7298 -36.1026 0
41.4118 -30.8672 0
35.6698 -36.3178 0
36.204 -31.0511 0
41.4118 -30.8672 0
42.1127 -25.4586 0
36.204 -31.0511 0
36.6817 -25.6644 0
35.6698 -36.3178 0
36.204 -31.0511 0
31.2005 -36.4463 0
31.5406 -31.1776 0
36.204 -31.0511 0
36.6817 -25.6644 0
31.5406 -31.1776 0
31.8312 -25.7521 0
30.4808 -46.4388 0
30.8482 -41.5071 0
26.505 -46.4992 0
26.725 -41.6294 0
30.8482 -41.5071 0
31.2005 -36.4463 0
26.725 -41.6294 0
26.867 -36.5104 0
26.505 -46.4992 0
26.725 -41.6294 0
22.6517 -46.5503 0
22.6424 -41.6027 0
26.725 -41.6294 0
26.867 -36.5104 0
22.6424 -41.6027 0
22.6619 -36.5393 0
31.2005 -36.4463 0
31.5406 -31.1776 0
26.867 -36.5104 0
26.9993 -31.2133 0
31.5406 -31.1776 0
31.8312 -25.7521 0
26.9993 -31.2133 0
27.1379 -25.7634 0
26.867 -36.5104 0
26.9993 -31.2133 0
22.6619 -36.5393 0
22.5911 -31.1711 0
26.9993 -31.2133 0
27.1379 -25.7634 0
22.5911 -31.1711 0
22.5498 -25.7213 0
42.1127 -25.4586 0
42.7655 -19.8778 0
36.6817 -25.6644 0
37.1733 -20.0307 0
42.7655 -19.8778 0
43.537 -14.044 0
37.1733 -20.0307 0
37.5349 -14.2795 0
36.6817 -25.6644 0
37.1733 -20.0307 0
31.8312 -25.7521 0
32.115 -20.1076 0
37.1733 -20.0307 0
37.5349 -14.2795 0
32.115 -20.1076 0
32.3178 -14.3055 0
43.537 -14.044 0
44.3575 -7.91137 0
37.5349 -14.2795 0
37.7537 -7.82113 0
44.3575 -7.91137 0
44.7878 0 0
37.7537 -7.82113 0
37.9632 -1.43026 0
37.5349 -14.2795 0
37.7537 -7.82113 0
32.3178 -14.3055 0
32.3323 -8.13312 0
37.7537 -7.82113 0
37.9632 -1.43026 0
32.3323 -8.13312 0
32.4567 -2.33654 0
31.8312 -25.7521 0
32.115 -20.1076 0
27.1379 -25.7634 0
27.2268 -20.1514 0
32.115 -20.1076 0
32.3178 -14.3055 0
27.2268 -20.1514 0
27.1895 -14.372 0
27.1379 -25.7634 0
27.2268 -20.1514 0
22.5498 -25.7213 0
22.4466 -20.191 0
27.2268 -20.1514 0
27.1895 -14.372 0
22.4466 -20.191 0
22.3042 -14.5698 0
32.3178 -14.3055 0
32.3323 -8.13312 0
27.1895 -14.372 0
27.1805 -8.59605 0
32.3323 -8.13312 0
32.4567 -2.33654 0
27.1805 -8.59605 0
27.2212 -2.8844 0
27.1895 -14.372 0
27.1805 -8.59605 0
22.3042 -14.5698 0
22.2262 -8.92195 0
27.1805 -8.59605 0
27.2212 -2.8844 0
22.2262 -8.92195 0
22.3065 -3.53398 0
22.6517 -46.5503 0
22.6424 -41.6027 0
18.7705 -46.4933 0
18.5887 -41.5732 0
22.6424 -41.6027 0
22.6619 -36.5393 0
18.5887 -41.5732 0
18.3549 -36.3938 0
18.7705 -46.4933 0
18.5887 -41.5732 0
14.7773 -46.3353 0
14.4346 -41.4185 0
18.5887 -41.5732 0
18.3549 -36.3938 0
14.4346 -41.4185 0
14.05 -36.2902 0
22.6619 -36.5393 0
22.5911 -31.1711 0
18.3549 -36.3938 0
18.1962 -31.1153 0
22.5911 -31.1711 0
22.5498 -25.7213 0
18.1962 -31.1153 0
17.9624 -25.72 0
18.3549 -36.3938 0
18.1962 -31.1153 0
14.05 -36.2902 0
13.639 -31.0498 0
18.1962 -31.1153 0
17.9624 -25.72 0
13.639 -31.0498 0
13.2754 -25.6978 0
14.7773 -46.3353 0
14.4346 -41.4185 0
10.5853 -46.1223 0
9.99009 -41.2292 0
14.4346 -41.4185 0
14.05 -36.2902 0
9.99009 -41.2292 0
9.43429 -36.1731 0
10.5853 -46.1223 0
9.99009 -41.2292 0
5.98508 -45.8964 0
5.32061 -41.0154 0
9.99009 -41.2292 0
9.43429 -36.1731 0
5.32061 -41.0154 0
4.82246 -36.0883 0
14.05 -36.2902 0
13.639 -31.0498 0
9.43429 -36.1731 0
9.00007 -30.9645 0
13.639 -31.0498 0
13.2754 -25.6978 0
9.00007 -30.9645 0
8.67028 -25.7224 0
9.43429 -36.1731 0
9.00007 -30.9645 0
4.82246 -36.0883 0
4.27745 -30.9123 0
9.00007 -30.9645 0
8.67028 -25.7224 0
4.27745 -30.9123 0
3.69157 -25.6025 0
22.5498 -25.7213 0
22.4466 -20.191 0
17.9624 -25.72 0
17.7006 -20.2471 0
22.4466 -20.191 0
22.3042 -14.5698 0
17.7006 -20.2471 0
17.548 -14.7439 0
17.9624 -25.72 0
17.7006 -20.2471 0
13.2754 -25.6978 0
13.0531 -20.3224 0
17.7006 -20.2471 0
17.548 -14.7439 0
13.0531 -20.3224 0
12.8535 -14.8578 0
22.3042 -14.5698 0
22.2262 -8.92195 0
17.548 -14.7439 0
17.4761 -9.23004 0
22.2262 -8.92195 0
22.3065 -3.53398 0
17.4761 -9.23004 0
17.5463 -4.06722 0
17.548 -14.7439 0
17.4761 -9.23004 0
12.8535 -14.8578 0
12.7683 -9.46314 0
17.4761 -9.23004 0
17.5463 -4.06722 0
12.7683 -9.46314 0
12.7964 -4.38324 0
13.2754 -25.6978 0
13.0531 -20.3224 0
8.67028 -25.7224 0
8.31596 -20.3145 0
13.0531 -20.3224 0
12.8535 -14.8578 0
8.31596 -20.3145 0
8.06179 -14.8895 0
8.67028 -25.7224 0
8.31596 -20.3145 0
3.69157 -25.6025 0
3.24269 -20.2244 0
8.31596 -20.3145 0
8.06179 -14.8895 0
3.24269 -20.2244 0
2.96913 -14.8509 0
12.8535 -14.8578 0
12.7683 -9.46314 0
8.06179 -14.8895 0
7.9378 -9.57444 0
12.7683 -9.46314 0
12.7964 -4.38324 0
7.9378 -9.57444 0
7.91649 -4.48503 0
8.06179 -14.8895 0
7.9378 -9.57444 0
2.96913 -14.8509 0
2.87769 -9.59248 0
7.9378 -9.57444 0
7.91649 -4.48503 0
2.87769 -9.59248 0
2.87182 -4.49155 0
32.0644 -77.4253 0
33.0921 -74.3453 0
29.2448 -77.7218 0
29.9812 -74.6363 0
33.0921 -74.3453 0
34.0645 -70.9931 0
29.9812 -74.6363 0
30.712 -71.2685 0
29.2448 -77.7218 0
29.9812 -74.6363 0
26.9025 -77.9225 0
27.3365 -74.8231 0
29.9812 -74.6363 0
30.712 -71.2685 0
27.3365 -74.8231 0
27.7877 -71.4538 0
34.0645 -70.9931 0
35.0095 -67.4053 0
30.712 -71.2685 0
31.4095 -67.6643 0
35.0095 -67.4053 0
35.9431 -63.5741 0
31.4095 -67.6643 0
32.0561 -63.8377 0
30.712 -71.2685 0
31.4095 -67.6643 0
27.7877 -71.4538 0
28.2543 -67.8208 0
31.4095 -67.6643 0
32.0561 -63.8377 0
28.2543 -67.8208 0
28.7294 -63.9814 0
26.9025 -77.9225 0
27.3365 -74.8231 0
24.7729 -78.0075 0
24.924 -74.9054 0
27.3365 -74.8231 0
27.7877 -71.4538 0
24.924 -74.9054 0
25.1021 -71.5229 0
24.7729 -78.0075 0
24.924 -74.9054 0
22.6864 -77.9722 0
22.5774 -74.8671 0
24.924 -74.9054 0
25.1021 -71.5229 0
22.5774 -74.8671 0
22.5236 -71.4883 0
27.7877 -71.4538 0
28.2543 -67.8208 0
25.1021 -71.5229 0
25.3219 -67.898 0
28.2543 -67.8208 0
28.7294 -63.9814 0
25.3219 -67.898 0
25.5461 -64.0496 0
25.1021 -71.5229 0
25.3219 -67.898 0
22.5236 -71.4883 0
22.4988 -67.8848 0
25.3219 -67.898 0
25.5461 -64.0496 0
22.4988 -67.8848 0
22.5137 -64.036 0
35.9431 -63.5741 0
36.8217 -59.4851 0
32.0561 -63.8377 0
32.7151 -59.7363 0
36.8217 -59.4851 0
37.652 -55.1952 0
32.7151 -59.7363 0
33.3681 -55.4344 0
32.0561 -63.8377 0
32.7151 -59.7363 0
28.7294 -63.9814 0
29.1828 -59.9283 0
32.7151 -59.7363 0
33.3681 -55.4344 0
29.1828 -59.9283 0
29.6296 -55.6176 0
37.652 -55.1952 0
38.4683 -50.719 0
33.3681 -55.4344 0
33.979 -50.9529 0
38.4683 -50.719 0
39.2567 -46.0296 0
33.979 -50.9529 0
34.562 -46.2567 0
33.3681 -55.4344 0
33.979 -50.9529 0
29.6296 -55.6176 0
30.0536 -51.1104 0
33.979 -50.9529 0
34.562 -46.2567 0
30.0536 -51.1104 0
30.4808 -46.4388 0
28.7294 -63.9814 0
29.1828 -59.9283 0
25.5461 -64.0496 0
25.7992 -59.9943 0
29.1828 -59.9283 0
29.6296 -55.6176 0
25.7992 -59.9943 0
26.0564 -55.7335 0
25.5461 -64.0496 0
25.7992 -59.9943 0
22.5137 -64.036 0
22.5032 -59.9844 0
25.7992 -59.9943 0
26.0564 -55.7335 0
22.5032 -59.9844 0
22.5476 -55.7254 0
29.6296 -55.6176 0
30.0536 -51.1104 0
26.0564 -55.7335 0
26.2944 -51.2411 0
30.0536 -51.1104 0
30.4808 -46.4388 0
26.2944 -51.2411 0
26.505 -46.4992 0
26.0564 -55.7335 0
26.2944 -51.2411 0
22.5476 -55.7254 0
22.6164 -51.2653 0
26.2944 -51.2411 0
26.505 -46.4992 0
22.6164 -51.2653 0
22.6517 -46.5503 0
22.6864 -77.9722 0
22.5774 -74.8671 0
20.5666 -77.8221 0
20.2255 -74.7157 0
22.5774 -74.8671 0
22.5236 -71.4883 0
20.2255 -74.7157 0
19.9451 -71.3757 0
20.5666 -77.8221 0
20.2255 -74.7157 0
18.3576 -77.5812 0
17.8284 -74.5084 0
20.2255 -74.7157 0
19.9451 -71.3757 0
17.8284 -74.5084 0
17.321 -71.1893 0
22.5236 -71.4883 0
22.4988 -67.8848 0
19.9451 -71.3757 0
19.7075 -67.7848 0
22.4988 -67.8848 0
22.5137 -64.036 0
19.7075 -67.7848 0
19.4744 -63.9624 0
19.9451 -71.3757 0
19.7075 -67.7848 0
17.321 -71.1893 0
16.8401 -67.6306 0
19.7075 -67.7848 0
19.4744 -63.9624 0
16.8401 -67.6306 0
16.3977 -63.812 0
18.3576 -77.5812 0
17.8284 -74.5084 0
16.002 -77.318 0
15.2294 -74.26 0
17.8284 -74.5084 0
17.321 -71.1893 0
15.2294 -74.26 0
14.4965 -70.9638 0
16.002 -77.318 0
15.2294 -74.26 0
13.1257 -77.0175 0
12.1314 -73.97 0
15.2294 -74.26 0
14.4965 -70.9638 0
12.1314 -73.97 0
11.1517 -70.6793 0
17.321 -71.1893 0
16.8401 -67.6306 0
14.4965 -70.9638 0
13.7799 -67.4098 0
16.8401 -67.6306 0
16.3977 -63.812 0
13.7799 -67.4098 0
13.0961 -63.62 0
14.4965 -70.9638 0
13.7799 -67.4098 0
11.1517 -70.6793 0
10.2057 -67.138 0
13.7799 -67.4098 0
13.0961 -63.62 0
10.2057 -67.138 0
9.28596 -63.3569 0
22.5137 -64.036 0
22.5032 -59.9844 0
19.4744 -63.9624 0
19.2921 -59.9044 0
22.5032 -59.9844 0
22.5476 -55.7254 0
19.2921 -59.9044 0
19.0801 -55.6465 0
19.4744 -63.9624 0
19.2921 -59.9044 0
16.3977 -63.812 0
15.9567 -59.7779 0
19.2921 -59.9044 0
19.0801 -55.6465 0
15.9567 -59.7779 0
15.5505 -55.5069 0
22.5476 -55.7254 0
22.6164 -51.2653 0
19.0801 -55.6465 0
18.904 -51.1781 0
22.6164 -51.2653 0
22.6517 -46.5503 0
18.904 -51.1781 0
18.7705 -46.4933 0
19.0801 -55.6465 0
18.904 -51.1781 0
15.5505 -55.5069 0
15.1513 -51.0192 0
18.904 -51.1781 0
18.7705 -46.4933 0
15.1513 -51.0192 0
14.7773 -46.3353 0
16.3977 -63.812 0
15.9567 -59.7779 0
13.0961 -63.62 0
12.4418 -59.5849 0
15.9567 -59.7779 0
15.5505 -55.5069 0
12.4418 -59.5849 0
11.7987 -55.3122 0
13.0961 -63.62 0
12.4418 -59.5849 0
9.28596 -63.3569 0
8.39556 -59.3298 0
12.4418 -59.5849 0
11.7987 -55.3122 0
8.39556 -59.3298 0
7.55112 -55.0701 0
15.5505 -55.5069 0
15.1513 -51.0192 0
11.7987 -55.3122 0
11.1884 -50.8276 0
15.1513 -51.0192 0
14.7773 -46.3353 0
11.1884 -50.8276 0
10.5853 -46.1223 0
11.7987 -55.3122 0
11.1884 -50.8276 0
7.55112 -55.0701 0
6.73808 -50.5908 0
11.1884 -50.8276 0
10.5853 -46.1223 0
6.73808 -50.5908 0
5.98508 -45.8964 0
22.3939 -89.3155 0
23.6861 -89.126 0
22.3939 -89.6909 0
23.3286 -89.4999 0
23.6861 -89.126 0
24.9665 -88.5632 0
23.3286 -89.4999 0
24.2604 -88.9328 0
22.3939 -89.6909 0
23.3286 -89.4999 0
22.3939 -90.2526 0
23.2187 -90.0307 0
23.3286 -89.4999 0
24.2604 -88.9328 0
23.2187 -90.0307 0
23.9731 -89.3656 0
24.9665 -88.5632 0
26.226 -87.6422 0
24.2604 -88.9328 0
25.1843 -88.0042 0
26.226 -87.6422 0
27.4684 -86.3614 0
25.1843 -88.0042 0
26.0686 -86.7116 0
24.2604 -88.9328 0
25.1843 -88.0042 0
23.9731 -89.3656 0
24.6074 -88.345 0
25.1843 -88.0042 0
26.0686 -86.7116 0
24.6074 -88.345 0
25.0905 -87.0031 0
22.3939 -90.2526 0
23.2187 -90.0307 0
22.3939 -90.8543 0
23.0164 -90.6125 0
23.2187 -90.0307 0
23.9731 -89.3656 0
23.0164 -90.6125 0
23.5673 -89.914 0
22.3939 -90.8543 0
23.0164 -90.6125 0
22.3939 -91.4403 0
22.7946 -91.1853 0
23.0164 -90.6125 0
23.5673 -89.914 0
22.7946 -91.1853 0
23.1055 -90.4292 0
23.9731 -89.3656 0
24.6074 -88.345 0
23.5673 -89.914 0
23.9671 -88.7419 0
24.6074 -88.345 0
25.0905 -87.0031 0
23.9671 -88.7419 0
24.2406 -87.3118 0
23.5673 -89.914 0
23.9671 -88.7419 0
23.1055 -90.4292 0
23.2487 -89.1267 0
23.9671 -88.7419 0
24.2406 -87.3118 0
23.2487 -89.1267 0
23.2579 -87.5182 0
27.4684 -86.3614 0
28.6921 -84.6835 0
26.0686 -86.7116 0
26.8958 -85.0259 0
28.6921 -84.6835 0
29.8585 -82.619 0
26.8958 -85.0259 0
27.7194 -82.9389 0
26.0686 -86.7116 0
26.8958 -85.0259 0
25.0905 -87.0031 0
25.5804 -85.2616 0
26.8958 -85.0259 0
27.7194 -82.9389 0
25.5804 -85.2616 0
26.0402 -83.1716 0
29.8585 -82.619 0
30.9899 -80.1978 0
27.7194 -82.9389 0
28.486 -80.513 0
30.9899 -80.1978 0
32.0644 -77.4253 0
28.486 -80.513 0
29.2448 -77.7218 0
27.7194 -82.9389 0
28.486 -80.513 0
26.0402 -83.1716 0
26.4554 -80.6991 0
28.486 -80.513 0
29.2448 -77.7218 0
26.4554 -80.6991 0
26.9025 -77.9225 0
25.0905 -87.0031 0
25.5804 -85.2616 0
24.2406 -87.3118 0
24.4113 -85.4523 0
25.5804 -85.2616 0
26.0402 -83.1716 0
24.4113 -85.4523 0
24.5273 -83.2924 0
24.2406 -87.3118 0
24.4113 -85.4523 0
23.2579 -87.5182 0
23.1707 -85.5634 0
24.4113 -85.4523 0
24.5273 -83.2924 0
23.1707 -85.5634 0
23.0088 -83.3057 0
26.0402 -83.1716 0
26.4554 -80.6991 0
24.5273 -83.2924 0
24.6559 -80.7856 0
26.4554 -80.6991 0
26.9025 -77.9225 0
24.6559 -80.7856 0
24.7729 -78.0075 0
24.5273 -83.2924 0
24.6559 -80.7856 0
23.0088 -83.3057 0
22.8446 -80.7919 0
24.6559 -80.7856 0
24.7729 -78.0075 0
22.8446 -80.7919 0
22.6864 -77.9722 0
22.3939 -91.4403 0
22.7946 -91.1853 0
22.3939 -92.0377 0
22.5465 -91.7355 0
22.7946 -91.1853 0
23.1055 -90.4292 0
22.5465 -91.7355 0
22.5995 -90.887 0
22.3939 -92.0377 0
22.5465 -91.7355 0
22.3939 -92.5882 0
22.1795 -92.2905 0
22.5465 -91.7355 0
22.5995 -90.887 0
22.1795 -92.2905 0
21.8816 -91.0901 0
23.1055 -90.4292 0
23.2487 -89.1267 0
22.5995 -90.887 0
22.4316 -89.381 0
23.2487 -89.1267 0
23.2579 -87.5182 0
22.4316 -89.381 0
22.1639 -87.6008 0
22.5995 -90.887 0
22.4316 -89.381 0
21.8816 -91.0901 0
21.4471 -89.4616 0
22.4316 -89.381 0
22.1639 -87.6008 0
21.4471 -89.4616 0
20.8808 -87.545 0
22.3939 -92.5882 0
22.1795 -92.2905 0
22.3939 -93.1848 0
21.7639 -92.4891 0
22.1795 -92.2905 0
21.8816 -91.0901 0
21.7639 -92.4891 0
21.011 -91.0664 0
22.3939 -93.1848 0
21.7639 -92.4891 0
22.3939 -93.1372 0
20.8897 -92.3397 0
21.7639 -92.4891 0
21.011 -91.0664 0
20.8897 -92.3397 0
19.5925 -90.7487 0
21.8816 -91.0901 0
21.4471 -89.4616 0
21.011 -91.0664 0
20.1868 -89.3565 0
21.4471 -89.4616 0
20.8808 -87.545 0
20.1868 -89.3565 0
19.3276 -87.3805 0
21.011 -91.0664 0
20.1868 -89.3565 0
19.5925 -90.7487 0
18.4109 -89.0317 0
20.1868 -89.3565 0
19.3276 -87.3805 0
18.4109 -89.0317 0
17.2978 -87.0573 0
23.2579 -87.5182 0
23.1707 -85.5634 0
22.1639 -87.6008 0
21.7692 -85.5458 0
23.1707 -85.5634 0
23.0088 -83.3057 0
21.7692 -85.5458 0
21.3656 -83.2445 0
22.1639 -87.6008 0
21.7692 -85.5458 0
20.8808 -87.545 0
20.2802 -85.4417 0
21.7692 -85.5458 0
21.3656 -83.2445 0
20.2802 -85.4417 0
19.5977 -83.0665 0
23.0088 -83.3057 0
22.8446 -80.7919 0
21.3656 -83.2445 0
20.9425 -80.6814 0
22.8446 -80.7919 0
22.6864 -77.9722 0
20.9425 -80.6814 0
20.5666 -77.8221 0
21.3656 -83.2445 0
20.9425 -80.6814 0
19.5977 -83.0665 0
18.9325 -80.3853 0
20.9425 -80.6814 0
20.5666 -77.8221 0
18.9325 -80.3853 0
18.3576 -77.5812 0
20.8808 -87.545 0
20.2802 -85.4417 0
19.3276 -87.3805 0
18.4732 -85.178 0
20.2802 -85.4417 0
19.5977 -83.0665 0
18.4732 -85.178 0
17.6283 -82.7632 0
19.3276 -87.3805 0
18.4732 -85.178 0
17.2978 -87.0573 0
16.2187 -84.8596 0
18.4732 -85.178 0
17.6283 -82.7632 0
16.2187 -84.8596 0
15.1672 -82.4501 0
19.5977 -83.0665 0
18.9325 -80.3853 0
17.6283 -82.7632 0
16.7995 -80.1436 0
18.9325 -80.3853 0
18.3576 -77.5812 0
16.7995 -80.1436 0
16.002 -77.318 0
17.6283 -82.7632 0
16.7995 -80.1436 0
15.1672 -82.4501 0
14.1397 -79.8386 0
16.7995 -80.1436 0
16.002 -77.318 0
14.1397 -79.8386 0
13.1257 -77.0175 0
12.7234 -77.4253 0
13.7979 -80.1978 0
15.543 -77.7218 0
16.3018 -80.513 0
13.7979 -80.1978 0
14.9293 -82.619 0
16.3018 -80.513 0
17.0684 -82.9389 0
15.543 -77.7218 0
16.3018 -80.513 0
17.8853 -77.9225 0
18.3323 -80.6991 0
16.3018 -80.513 0
17.0684 -82.9389 0
18.3323 -80.6991 0
18.7476 -83.1716 0
14.9293 -82.619 0
16.0956 -84.6835 0
17.0684 -82.9389 0
17.892 -85.0259 0
16.0956 -84.6835 0
17.3193 -86.3614 0
17.892 -85.0259 0
18.7192 -86.7116 0
17.0684 -82.9389 0
17.892 -85.0259 0
18.7476 -83.1716 0
19.2073 -85.2616 0
17.892 -85.0259 0
18.7192 -86.7116 0
19.2073 -85.2616 0
19.6973 -87.0031 0
17.8853 -77.9225 0
18.3323 -80.6991 0
20.0149 -78.0075 0
20.1319 -80.7856 0
18.3323 -80.6991 0
18.7476 -83.1716 0
20.1319 -80.7856 0
20.2605 -83.2924 0
20.0149 -78.0075 0
20.1319 -80.7856 0
22.1014 -77.9722 0
21.9431 -80.7919 0
20.1319 -80.7856 0
20.2605 -83.2924 0
21.9431 -80.7919 0
21.7789 -83.3057 0
18.7476 -83.1716 0
19.2073 -85.2616 0
20.2605 -83.2924 0
20.3765 -85.4523 0
19.2073 -85.2616 0
19.6973 -87.0031 0
20.3765 -85.4523 0
20.5472 -87.3118 0
20.2605 -83.2924 0
20.3765 -85.4523 0
21.7789 -83.3057 0
21.6171 -85.5634 0
20.3765 -85.4523 0
20.5472 -87.3118 0
21.6171 -85.5634 0
21.5299 -87.5182 0
17.3193 -86.3614 0
18.5618 -87.6422 0
18.7192 -86.7116 0
19.6035 -88.0042 0
18.5618 -87.6422 0
19.8213 -88.5632 0
19.6035 -88.0042 0
20.5273 -88.9328 0
18.7192 -86.7116 0
19.6035 -88.0042 0
19.6973 -87.0031 0
20.1804 -88.345 0
19.6035 -88.0042 0
20.5273 -88.9328 0
20.1804 -88.345 0
20.8146 -89.3656 0
19.8213 -88.5632 0
21.1017 -89.126 0
20.5273 -88.9328 0
21.4592 -89.4999 0
21.1017 -89.126 0
22.3939 -89.3155 0
21.4592 -89.4999 0
22.3939 -89.6909 0
20.5273 -88.9328 0
21.4592 -89.4999 0
20.8146 -89.3656 0
21.5691 -90.0307 0
21.4592 -89.4999 0
22.3939 -89.6909 0
21.5691 -90.0307 0
22.3939 -90.2526 0
19.6973 -87.0031 0
20.1804 -88.345 0
20.5472 -87.3118 0
20.8206 -88.7419 0
20.1804 -88.345 0
20.8146 -89.3656 0
20.8206 -88.7419 0
21.2205 -89.914 0
20.5472 -87.3118 0
20.8206 -88.7419 0
21.5299 -87.5182 0
21.5391 -89.1267 0
20.8206 -88.7419 0
21.2205 -89.914 0
21.5391 -89.1267 0
21.6823 -90.4292 0
20.8146 -89.3656 0
21.5691 -90.0307 0
21.2205 -89.914 0
21.7714 -90.6125 0
21.5691 -90.0307 0
22.3939 -90.2526 0
21.7714 -90.6125 0
22.3939 -90.8543 0
21.2205 -89.914 0
21.7714 -90.6125 0
21.6823 -90.4292 0
21.9932 -91.1853 0
21.7714 -90.6125 0
22.3939 -90.8543 0
21.9932 -91.1853 0
22.3939 -91.4403 0
22.1014 -77.9722 0
21.9431 -80.7919 0
24.2211 -77.8221 0
23.8453 -80.6814 0
21.9431 -80.7919 0
21.7789 -83.3057 0
23.8453 -80.6814 0
23.4222 -83.2445 0
24.2211 -77.8221 0
23.8453 -80.6814 0
26.4302 -77.5812 0
25.8553 -80.3853 0
23.8453 -80.6814 0
23.4222 -83.2445 0
25.8553 -80.3853 0
25.19 -83.0665 0
21.7789 -83.3057 0
21.6171 -85.5634 0
23.4222 -83.2445 0
23.0186 -85.5458 0
21.6171 -85.5634 0
21.5299 -87.5182 0
23.0186 -85.5458 0
22.6239 -87.6008 0
23.4222 -83.2445 0
23.0186 -85.5458 0
25.19 -83.0665 0
24.5076 -85.4417 0
23.0186 -85.5458 0
22.6239 -87.6008 0
24.5076 -85.4417 0
23.907 -87.545 0
26.4302 -77.5812 0
25.8553 -80.3853 0
28.7858 -77.318 0
27.9883 -80.1436 0
25.8553 -80.3853 0
25.19 -83.0665 0
27.9883 -80.1436 0
27.1594 -82.7632 0
28.7858 -77.318 0
27.9883 -80.1436 0
31.6621 -77.0175 0
30.6481 -79.8386 0
27.9883 -80.1436 0
27.1594 -82.7632 0
30.6481 -79.8386 0
29.6206 -82.4501 0
25.19 -83.0665 0
24.5076 -85.4417 0
27.1594 -82.7632 0
26.3146 -85.178 0
24.5076 -85.4417 0
23.907 -87.545 0
26.3146 -85.178 0
25.4601 -87.3805 0
27.1594 -82.7632 0
26.3146 -85.178 0
29.6206 -82.4501 0
28.5691 -84.8596 0
26.3146 -85.178 0
25.4601 -87.3805 0
28.5691 -84.8596 0
27.49 -87.0573 0
21.5299 -87.5182 0
21.5391 -89.1267 0
22.6239 -87.6008 0
22.3561 -89.381 0
21.5391 -89.1267 0
21.6823 -90.4292 0
22.3561 -89.381 0
22.1882 -90.887 0
22.6239 -87.6008 0
22.3561 -89.381 0
23.907 -87.545 0
23.3407 -89.4616 0
22.3561 -89.381 0
22.1882 -90.887 0
23.3407 -89.4616 0
22.9061 -91.0901 0
21.6823 -90.4292 0
21.9932 -91.1853 0
22.1882 -90.887 0
22.2413 -91.7355 0
21.9932 -91.1853 0
22.3939 -91.4403 0
22.2413 -91.7355 0
22.3939 -92.0377 0
22.1882 -90.887 0
22.2413 -91.7355 0
22.9061 -91.0901 0
22.6083 -92.2905 0
22.2413 -91.7355 0
22.3939 -92.0377 0
22.6083 -92.2905 0
22.3939 -92.5882 0
23.907 -87.545 0
23.3407 -89.4616 0
25.4601 -87.3805 0
24.601 -89.3565 0
23.3407 -89.4616 0
22.9061 -91.0901 0
24.601 -89.3565 0
23.7768 -91.0664 0
25.4601 -87.3805 0
24.601 -89.3565 0
27.49 -87.0573 0
26.3769 -89.0317 0
24.601 -89.3565 0
23.7768 -91.0664 0
26.3769 -89.0317 0
25.1952 -90.7487 0
22.9061 -91.0901 0
22.6083 -92.2905 0
23.7768 -91.0664 0
23.0239 -92.4891 0
22.6083 -92.2905 0
22.3939 -92.5882 0
23.0239 -92.4891 0
22.3939 -93.1848 0
23.7768 -91.0664 0
23.0239 -92.4891 0
25.1952 -90.7487 0
23.8981 -92.3397 0
23.0239 -92.4891 0
22.3939 -93.1848 0
23.8981 -92.3397 0
22.3939 -93.1372 0
5.53107 -46.0296 0
6.31952 -50.719 0
10.2257 -46.2567 0
10.8088 -50.9529 0
6.31952 -50.719 0
7.13582 -55.1952 0
10.8088 -50.9529 0
11.4197 -55.4344 0
10.2257 -46.2567 0
10.8088 -50.9529 0
14.307 -46.4388 0
14.7342 -51.1104 0
10.8088 -50.9529 0
11.4197 -55.4344 0
14.7342 -51.1104 0
15.1582 -55.6176 0
7.13582 -55.1952 0
7.96604 -59.4851 0
11.4197 -55.4344 0
12.0727 -59.7363 0
7.96604 -59.4851 0
8.84464 -63.5741 0
12.0727 -59.7363 0
12.7317 -63.8377 0
11.4197 -55.4344 0
12.0727 -59.7363 0
15.1582 -55.6176 0
15.605 -59.9283 0
12.0727 -59.7363 0
12.7317 -63.8377 0
15.605 -59.9283 0
16.0584 -63.9814 0
14.307 -46.4388 0
14.7342 -51.1104 0
18.2828 -46.4992 0
18.4934 -51.2411 0
14.7342 -51.1104 0
15.1582 -55.6176 0
18.4934 -51.2411 0