# vtk DataFile Version 3.0
#This file was generated by the deal.II library on 2020/9/2 at 8:38:57
ASCII
DATASET UNSTRUCTURED_GRID

POINTS 1536 double
5 0 0
5.125 0 0
5 0.125 0
5.125 0.125 0
5.125 0 0
5.25 0 0
5.125 0.125 0
5.25 0.125 0
5 0.125 0
5.125 0.125 0
5 0.25 0
5.125 0.25 0
5.125 0.125 0
5.25 0.125 0
5.125 0.25 0
5.25 0.25 0
5.25 0 0
5.375 0 0
5.25 0.125 0
5.375 0.125 0
5.375 0 0
5.5 0 0
5.375 0.125 0
5.5 0.125 0
5.25 0.125 0
5.375 0.125 0
5.25 0.25 0
5.375 0.25 0
5.375 0.125 0
5.5 0.125 0
5.375 0.25 0
5.5 0.25 0
5 0.25 0
5.125 0.25 0
5 0.375 0
5.125 0.375 0
5.125 0.25 0
5.25 0.25 0
5.125 0.375 0
5.25 0.375 0
5 0.375 0
5.125 0.375 0
5 0.5 0
5.125 0.5 0
5.125 0.375 0
5.25 0.375 0
5.125 0.5 0
5.25 0.5 0
5.25 0.25 0
5.375 0.25 0
5.25 0.375 0
5.375 0.375 0
5.375 0.25 0
5.5 0.25 0
5.375 0.375 0
5.5 0.375 0
5.25 0.375 0
5.375 0.375 0
5.25 0.5 0
5.375 0.5 0
5.375 0.375 0
5.5 0.375 0
5.375 0.5 0
5.5 0.5 0
5.5 0 0
5.625 0 0
5.5 0.125 0
5.625 0.125 0
5.625 0 0
5.75 0 0
5.625 0.125 0
5.75 0.125 0
5.5 0.125 0
5.625 0.125 0
5.5 0.25 0
5.625 0.25 0
5.625 0.125 0
5.75 0.125 0
5.625 0.25 0
5.75 0.25 0
5.75 0 0
5.875 0 0
5.75 0.125 0
5.875 0.125 0
5.875 0 0
6 0 0
5.875 0.125 0
6 0.125 0
5.75 0.125 0
5.875 0.125 0
5.75 0.25 0
5.875 0.25 0
5.875 0.125 0
6 0.125 0
5.875 0.25 0
6 0.25 0
5.5 0.25 0
5.625 0.25 0
5.5 0.375 0
5.625 0.375 0
5.625 0.25 0
5.75 0.25 0
5.625 0.375 0
5.75 0.375 0
5.5 0.375 0
5.625 0.375 0
5.5 0.5 0
5.625 0.5 0
5.625 0.375 0
5.75 0.375 0
5.625 0.5 0
5.75 0.5 0
5.75 0.25 0
5.875 0.25 0
5.75 0.375 0
5.875 0.375 0
5.875 0.25 0
6 0.25 0
5.875 0.375 0
6 0.375 0
5.75 0.375 0
5.875 0.375 0
5.75 0.5 0
5.875 0.5 0
5.875 0.375 0
6 0.375 0
5.875 0.5 0
6 0.5 0
5 0.5 0
5.125 0.5 0
5 0.625 0
5.125 0.625 0
5.125 0.5 0
5.25 0.5 0
5.125 0.625 0
5.25 0.625 0
5 0.625 0
5.125 0.625 0
5 0.75 0
5.125 0.75 0
5.125 0.625 0
5.25 0.625 0
5.125 0.75 0
5.25 0.75 0
5.25 0.5 0
5.375 0.5 0
5.25 0.625 0
5.375 0.625 0
5.375 0.5 0
5.5 0.5 0
5.375 0.625 0
5.5 0.625 0
5.25 0.625 0
5.375 0.625 0
5.25 0.75 0
5.375 0.75 0
5.375 0.625 0
5.5 0.625 0
5.375 0.75 0
5.5 0.75 0
5 0.75 0
5.125 0.75 0
5 0.875 0
5.125 0.875 0
5.125 0.75 0
5.25 0.75 0
5.125 0.875 0
5.25 0.875 0
5 0.875 0
5.125 0.875 0
5 1 0
5.125 1 0
5.125 0.875 0
5.25 0.875 0
5.125 1 0
5.25 1 0
5.25 0.75 0
5.375 0.75 0
5.25 0.875 0
5.375 0.875 0
5.375 0.75 0
5.5 0.75 0
5.375 0.875 0
5.5 0.875 0
5.25 0.875 0
5.375 0.875 0
5.25 1 0
5.375 1 0
5.375 0.875 0
5.5 0.875 0
5.375 1 0
5.5 1 0
5.5 0.5 0
5.625 0.5 0
5.5 0.625 0
5.625 0.625 0
5.625 0.5 0
5.75 0.5 0
5.625 0.625 0
5.75 0.625 0
5.5 0.625 0
5.625 0.625 0
5.5 0.75 0
5.625 0.75 0
5.625 0.625 0
5.75 0.625 0
5.625 0.75 0
5.75 0.75 0
5.75 0.5 0
5.875 0.5 0
5.75 0.625 0
5.875 0.625 0
5.875 0.5 0
6 0.5 0
5.875 0.625 0
6 0.625 0
5.75 0.625 0
5.875 0.625 0
5.75 0.75 0
5.875 0.75 0
5.875 0.625 0
6 0.625 0
5.875 0.75 0
6 0.75 0
5.5 0.75 0
5.625 0.75 0
5.5 0.875 0
5.625 0.875 0
5.625 0.75 0
5.75 0.75 0
5.625 0.875 0
5.75 0.875 0
5.5 0.875 0
5.625 0.875 0
5.5 1 0
5.625 1 0
5.625 0.875 0
5.75 0.875 0
5.625 1 0
5.75 1 0
5.75 0.75 0
5.875 0.75 0
5.75 0.875 0
5.875 0.875 0
5.875 0.75 0
6 0.75 0
5.875 0.875 0
6 0.875 0
5.75 0.875 0
5.875 0.875 0
5.75 1 0
5.875 1 0
5.875 0.875 0
6 0.875 0
5.875 1 0
6 1 0
4 0 0
4.125 0 0
4 0.125 0
4.125 0.125 0
4.125 0 0
4.25 0 0
4.125 0.125 0
4.25 0.125 0
4 0.125 0
4.125 0.125 0
4 0.25 0
4.125 0.25 0
4.125 0.125 0
4.25 0.125 0
4.125 0.25 0
4.25 0.25 0
4.25 0 0
4.375 0 0
4.25 0.125 0
4.375 0.125 0
4.375 0 0
4.5 0 0
4.375 0.125 0
4.5 0.125 0
4.25 0.125 0
4.375 0.125 0
4.25 0.25 0
4.375 0.25 0
4.375 0.125 0
4.5 0.125 0
4.375 0.25 0
4.5 0.25 0
4 0.25 0
4.125 0.25 0
4 0.375 0
4.125 0.375 0
4.125 0.25 0
4.25 0.25 0
4.125 0.375 0
4.25 0.375 0
4 0.375 0
4.125 0.375 0
4 0.5 0
4.125 0.5 0
4.125 0.375 0
4.25 0.375 0
4.125 0.5 0
4.25 0.5 0
4.25 0.25 0
4.375 0.25 0
4.25 0.375 0
4.375 0.375 0
4.375 0.25 0
4.5 0.25 0
4.375 0.375 0
4.5 0.375 0
4.25 0.375 0
4.375 0.375 0
4.25 0.5 0
4.375 0.5 0
4.375 0.375 0
4.5 0.375 0
4.375 0.5 0
4.5 0.5 0
4.5 0 0
4.625 0 0
4.5 0.125 0
4.625 0.125 0
4.625 0 0
4.75 0 0
4.625 0.125 0
4.75 0.125 0
4.5 0.125 0
4.625 0.125 0
4.5 0.25 0
4.625 0.25 0
4.625 0.125 0
4.75 0.125 0
4.625 0.25 0
4.75 0.25 0
4.75 0 0
4.875 0 0
4.75 0.125 0
4.875 0.125 0
4.875 0 0
5 0 0
4.875 0.125 0
5 0.125 0
4.75 0.125 0
4.875 0.125 0
4.75 0.25 0
4.875 0.25 0
4.875 0.125 0
5 0.125 0
4.875 0.25 0
5 0.25 0
4.5 0.25 0
4.625 0.25 0
4.5 0.375 0
4.625 0.375 0
4.625 0.25 0
4.75 0.25 0
4.625 0.375 0
4.75 0.375 0
4.5 0.375 0
4.625 0.375 0
4.5 0.5 0
4.625 0.5 0
4.625 0.375 0
4.75 0.375 0
4.625 0.5 0
4.75 0.5 0
4.75 0.25 0
4.875 0.25 0
4.75 0.375 0
4.875 0.375 0
4.875 0.25 0
5 0.25 0
4.875 0.375 0
5 0.375 0
4.75 0.375 0
4.875 0.375 0
4.75 0.5 0
4.875 0.5 0
4.875 0.375 0
5 0.375 0
4.875 0.5 0
5 0.5 0
4 0.5 0
4.125 0.5 0
4 0.625 0
4.125 0.625 0
4.125 0.5 0
4.25 0.5 0
4.125 0.625 0
4.25 0.625 0
4 0.625 0
4.125 0.625 0
4 0.75 0
4.125 0.75 0
4.125 0.625 0
4.25 0.625 0
4.125 0.75 0
4.25 0.75 0
4.25 0.5 0
4.375 0.5 0
4.25 0.625 0
4.375 0.625 0
4.375 0.5 0
4.5 0.5 0
4.375 0.625 0
4.5 0.625 0
4.25 0.625 0
4.375 0.625 0
4.25 0.75 0
4.375 0.75 0
4.375 0.625 0
4.5 0.625 0
4.375 0.75 0
4.5 0.75 0
4 0.75 0
4.125 0.75 0
4 0.875 0
4.125 0.875 0
4.125 0.75 0
4.25 0.75 0
4.125 0.875 0
4.25 0.875 0
4 0.875 0
4.125 0.875 0
4 1 0
4.125 1 0
4.125 0.875 0
4.25 0.875 0
4.125 1 0
4.25 1 0
4.25 0.75 0
4.375 0.75 0
4.25 0.875 0
4.375 0.875 0
4.375 0.75 0
4.5 0.75 0
4.375 0.875 0
4.5 0.875 0
4.25 0.875 0
4.375 0.875 0
4.25 1 0
4.375 1 0
4.375 0.875 0
4.5 0.875 0
4.375 1 0
4.5 1 0
4.5 0.5 0
4.625 0.5 0
4.5 0.625 0
4.625 0.625 0
4.625 0.5 0
4.75 0.5 0
4.625 0.625 0
4.75 0.625 0
4.5 0.625 0
4.625 0.625 0
4.5 0.75 0
4.625 0.75 0
4.625 0.625 0
4.75 0.625 0
4.625 0.75 0
4.75 0.75 0
4.75 0.5 0
4.875 0.5 0
4.75 0.625 0
4.875 0.625 0
4.875 0.5 0
5 0.5 0
4.875 0.625 0
5 0.625 0
4.75 0.625 0
4.875 0.625 0
4.75 0.75 0
4.875 0.75 0
4.875 0.625 0
5 0.625 0
4.875 0.75 0
5 0.75 0
4.5 0.75 0
4.625 0.75 0
4.5 0.875 0
4.625 0.875 0
4.625 0.75 0
4.75 0.75 0
4.625 0.875 0
4.75 0.875 0
4.5 0.875 0
4.625 0.875 0
4.5 1 0
4.625 1 0
4.625 0.875 0
4.75 0.875 0
4.625 1 0
4.75 1 0
4.75 0.75 0
4.875 0.75 0
4.75 0.875 0
4.875 0.875 0
4.875 0.75 0
5 0.75 0
4.875 0.875 0
5 0.875 0
4.75 0.875 0
4.875 0.875 0
4.75 1 0
4.875 1 0
4.875 0.875 0
5 0.875 0
4.875 1 0
5 1 0
3 0 0
3.125 0 0
3 0.125 0
3.125 0.125 0
3.125 0 0
3.25 0 0
3.125 0.125 0
3.25 0.125 0
3 0.125 0
3.125 0.125 0
3 0.25 0
3.125 0.25 0
3.125 0.125 0
3.25 0.125 0
3.125 0.25 0
3.25 0.25 0
3.25 0 0
3.375 0 0
3.25 0.125 0
3.375 0.125 0
3.375 0 0
3.5 0 0
3.375 0.125 0
3.5 0.125 0
3.25 0.125 0
3.375 0.125 0
3.25 0.25 0
3.375 0.25 0
3.375 0.125 0
3.5 0.125 0
3.375 0.25 0
3.5 0.25 0
3 0.25 0
3.125 0.25 0
3 0.375 0
3.125 0.375 0
3.125 0.25 0
3.25 0.25 0
3.125 0.375 0
3.25 0.375 0
3 0.375 0
3.125 0.375 0
3 0.5 0
3.125 0.5 0
3.125 0.375 0
3.25 0.375 0
3.125 0.5 0
3.25 0.5 0
3.25 0.25 0
3.375 0.25 0
3.25 0.375 0
3.375 0.375 0
3.375 0.25 0
3.5 0.25 0
3.375 0.375 0
3.5 0.375 0
3.25 0.375 0
3.375 0.375 0
3.25 0.5 0
3.375 0.5 0
3.375 0.375 0
3.5 0.375 0
3.375 0.5 0
3.5 0.5 0
3.5 0 0
3.625 0 0
3.5 0.125 0
3.625 0.125 0
3.625 0 0
3.75 0 0
3.625 0.125 0
3.75 0.125 0
3.5 0.125 0
3.625 0.125 0
3.5 0.25 0
3.625 0.25 0
3.625 0.125 0
3.75 0.125 0
3.625 0.25 0
3.75 0.25 0
3.75 0 0
3.875 0 0
3.75 0.125 0
3.875 0.125 0
3.875 0 0
4 0 0
3.875 0.125 0
4 0.125 0
3.75 0.125 0
3.875 0.125 0
3.75 0.25 0
3.875 0.25 0
3.875 0.125 0
4 0.125 0
3.875 0.25 0
4 0.25 0
3.5 0.25 0
3.625 0.25 0
3.5 0.375 0
3.625 0.375 0
3.625 0.25 0
3.75 0.25 0
3.625 0.375 0
3.75 0.375 0
3.5 0.375 0
3.625 0.375 0
3.5 0.5 0
3.625 0.5 0
3.625 0.375 0
3.75 0.375 0
3.625 0.5 0
3.75 0.5 0
3.75 0.25 0
3.875 0.25 0
3.75 0.375 0
3.875 0.375 0
3.875 0.25 0
4 0.25 0
3.875 0.375 0
4 0.375 0
3.75 0.375 0
3.875 0.375 0
3.75 0.5 0
3.875 0.5 0
3.875 0.375 0
4 0.375 0
3.875 0.5 0
4 0.5 0
3 0.5 0
3.125 0.5 0
3 0.625 0
3.125 0.625 0
3.125 0.5 0
3.25 0.5 0
3.125 0.625 0
3.25 0.625 0
3 0.625 0
3.125 0.625 0
3 0.75 0
3.125 0.75 0
3.125 0.625 0
3.25 0.625 0
3.125 0.75 0
3.25 0.75 0
3.25 0.5 0
3.375 0.5 0
3.25 0.625 0
3.375 0.625 0
3.375 0.5 0
3.5 0.5 0
3.375 0.625 0
3.5 0.625 0
3.25 0.625 0
3.375 0.625 0
3.25 0.75 0
3.375 0.75 0
3.375 0.625 0
3.5 0.625 0
3.375 0.75 0
3.5 0.75 0
3 0.75 0
3.125 0.75 0
3 0.875 0
3.125 0.875 0
3.125 0.75 0
3.25 0.75 0
3.125 0.875 0
3.25 0.875 0
3 0.875 0
3.125 0.875 0
3 1 0
3.125 1 0
3.125 0.875 0
3.25 0.875 0
3.125 1 0
3.25 1 0
3.25 0.75 0
3.375 0.75 0
3.25 0.875 0
3.375 0.875 0
3.375 0.75 0
3.5 0.75 0
3.375 0.875 0
3.5 0.875 0
3.25 0.875 0
3.375 0.875 0
3.25 1 0
3.375 1 0
3.375 0.875 0
3.5 0.875 0
3.375 1 0
3.5 1 0
3.5 0.5 0
3.625 0.5 0
3.5 0.625 0
3.625 0.625 0
3.625 0.5 0
3.75 0.5 0
3.625 0.625 0
3.75 0.625 0
3.5 0.625 0
3.625 0.625 0
3.5 0.75 0
3.625 0.75 0
3.625 0.625 0
3.75 0.625 0
3.625 0.75 0
3.75 0.75 0
3.75 0.5 0
3.875 0.5 0
3.75 0.625 0
3.875 0.625 0
3.875 0.5 0
4 0.5 0
3.875 0.625 0
4 0.625 0
3.75 0.625 0
3.875 0.625 0
3.75 0.75 0
3.875 0.75 0
3.875 0.625 0
4 0.625 0
3.875 0.75 0
4 0.75 0
3.5 0.75 0
3.625 0.75 0
3.5 0.875 0
3.625 0.875 0
3.625 0.75 0
3.75 0.75 0
3.625 0.875 0
3.75 0.875 0
3.5 0.875 0
3.625 0.875 0
3.5 1 0
3.625 1 0
3.625 0.875 0
3.75 0.875 0
3.625 1 0
3.75 1 0
3.75 0.75 0
3.875 0.75 0
3.75 0.875 0
3.875 0.875 0
3.875 0.75 0
4 0.75 0
3.875 0.875 0
4 0.875 0
3.75 0.875 0
3.875 0.875 0
3.75 1 0
3.875 1 0
3.875 0.875 0
4 0.875 0
3.875 1 0
4 1 0
2 0 0
2.125 0 0
2 0.125 0
2.125 0.125 0
2.125 0 0
2.25 0 0
2.125 0.125 0
2.25 0.125 0
2 0.125 0
2.125 0.125 0
2 0.25 0
2.125 0.25 0
2.125 0.125 0
2.25 0.125 0
2.125 0.25 0
2.25 0.25 0
2.25 0 0
2.375 0 0
2.25 0.125 0
2.375 0.125 0
2.375 0 0
2.5 0 0
2.375 0.125 0
2.5 0.125 0
2.25 0.125 0
2.375 0.125 0
2.25 0.25 0
2.375 0.25 0
2.375 0.125 0
2.5 0.125 0
2.375 0.25 0
2.5 0.25 0
2 0.25 0
2.125 0.25 0
2 0.375 0
2.125 0.375 0
2.125 0.25 0
2.25 0.25 0
2.125 0.375 0
2.25 0.375 0
2 0.375 0
2.125 0.375 0
2 0.5 0
2.125 0.5 0
2.125 0.375 0
2.25 0.375 0
2.125 0.5 0
2.25 0.5 0
2.25 0.25 0
2.375 0.25 0
2.25 0.375 0
2.375 0.375 0
2.375 0.25 0
[...]
POINT_DATA 1536
VECTORS displacements double
26.5431 -29.5836 0
26.9638 -26.4269 0
23.497 -29.7116 0
23.812 -26.5422 0
26.9638 -26.4269 0
27.3445 -23.1737 0
23.812 -26.5422 0
24.0944 -23.2767 0
23.497 -29.7116 0
23.812 -26.5422 0
20.5495 -29.8 0
20.7541 -26.6194 0
23.812 -26.5422 0
24.0944 -23.2767 0
20.7541 -26.6194 0
20.9319 -23.3415 0
27.3445 -23.1737 0
27.6902 -19.8331 0
24.0944 -23.2767 0
24.3445 -19.9245 0
27.6902 -19.8331 0
28.0118 -16.4085 0
24.3445 -19.9245 0
24.5623 -16.4904 0
24.0944 -23.2767 0
24.3445 -19.9245 0
20.9319 -23.3415 0
21.079 -19.9754 0
24.3445 -19.9245 0
24.5623 -16.4904 0
21.079 -19.9754 0
21.1891 -16.5247 0
20.5495 -29.8 0
20.7541 -26.6194 0
17.6677 -29.8478 0
17.763 -26.6574 0
20.7541 -26.6194 0
20.9319 -23.3415 0
17.763 -26.6574 0
17.8394 -23.3678 0
17.6677 -29.8478 0
17.763 -26.6574 0
14.8204 -29.8571 0
14.8104 -26.6598 0
17.763 -26.6574 0
17.8394 -23.3678 0
14.8104 -26.6598 0
14.793 -23.3618 0
20.9319 -23.3415 0
21.079 -19.9754 0
17.8394 -23.3678 0
17.8927 -19.9882 0
21.079 -19.9754 0
21.1891 -16.5247 0
17.8927 -19.9882 0
17.9175 -16.5243 0
17.8394 -23.3678 0
17.8927 -19.9882 0
14.793 -23.3618 0
14.7658 -19.9742 0
17.8927 -19.9882 0
17.9175 -16.5243 0
14.7658 -19.9742 0
14.7278 -16.5077 0
28.0118 -16.4085 0
28.3292 -12.8925 0
24.5623 -16.4904 0
24.7435 -12.9638 0
28.3292 -12.8925 0
28.6848 -9.22547 0
24.7435 -12.9638 0
24.8695 -9.30894 0
24.5623 -16.4904 0
24.7435 -12.9638 0
21.1891 -16.5247 0
21.2512 -12.9814 0
24.7435 -12.9638 0
24.8695 -9.30894 0
21.2512 -12.9814 0
21.2497 -9.30428 0
28.6848 -9.22547 0
29.1284 -5.3288 0
24.8695 -9.30894 0
24.8592 -5.30758 0
29.1284 -5.3288 0
29.5044 0 0
24.8592 -5.30758 0
24.9669 -1.06293 0
24.8695 -9.30894 0
24.8592 -5.30758 0
21.2497 -9.30428 0
21.2432 -5.4733 0
24.8592 -5.30758 0
24.9669 -1.06293 0
21.2432 -5.4733 0
21.3506 -1.76526 0
21.1891 -16.5247 0
21.2512 -12.9814 0
17.9175 -16.5243 0
17.9109 -12.9752 0
21.2512 -12.9814 0
21.2497 -9.30428 0
17.9109 -12.9752 0
17.8894 -9.34463 0
17.9175 -16.5243 0
17.9109 -12.9752 0
14.7278 -16.5077 0
14.6854 -12.9763 0
17.9109 -12.9752 0
17.8894 -9.34463 0
14.6854 -12.9763 0
14.6574 -9.4107 0
21.2497 -9.30428 0
21.2432 -5.4733 0
17.8894 -9.34463 0
17.9024 -5.69658 0
21.2432 -5.4733 0
21.3506 -1.76526 0
17.9024 -5.69658 0
17.9868 -2.22135 0
17.8894 -9.34463 0
17.9024 -5.69658 0
14.6574 -9.4107 0
14.6691 -5.88195 0
17.9024 -5.69658 0
17.9868 -2.22135 0
14.6691 -5.88195 0
14.7257 -2.51334 0
14.8204 -29.8571 0
14.8104 -26.6598 0
11.9772 -29.8308 0
11.8661 -26.631 0
14.8104 -26.6598 0
14.793 -23.3618 0
11.8661 -26.631 0
11.7623 -23.3304 0
11.9772 -29.8308 0
11.8661 -26.631 0
9.10528 -29.7711 0
8.89632 -26.5745 0
11.8661 -26.631 0
11.7623 -23.3304 0
8.89632 -26.5745 0
8.71081 -23.2778 0
14.793 -23.3618 0
14.7658 -19.9742 0
11.7623 -23.3304 0
11.6655 -19.9424 0
14.7658 -19.9742 0
14.7278 -16.5077 0
11.6655 -19.9424 0
11.5783 -16.4843 0
11.7623 -23.3304 0
11.6655 -19.9424 0
8.71081 -23.2778 0
8.55066 -19.8967 0
11.6655 -19.9424 0
11.5783 -16.4843 0
8.55066 -19.8967 0
8.41921 -16.4528 0
9.10528 -29.7711 0
8.89632 -26.5745 0
6.16714 -29.6785 0
5.86081 -26.4913 0
8.89632 -26.5745 0
8.71081 -23.2778 0
5.86081 -26.4913 0
5.59471 -23.205 0
6.16714 -29.6785 0
5.86081 -26.4913 0
3.11756 -29.5518 0
2.71064 -26.3796 0
5.86081 -26.4913 0
5.59471 -23.205 0
2.71064 -26.3796 0
2.36034 -23.1102 0
8.71081 -23.2778 0
8.55066 -19.8967 0
5.59471 -23.205 0
5.37274 -19.8369 0
8.55066 -19.8967 0
8.41921 -16.4528 0
5.37274 -19.8369 0
5.19887 -16.4102 0
5.59471 -23.205 0
5.37274 -19.8369 0
2.36034 -23.1102 0
2.07397 -19.7614 0
5.37274 -19.8369 0
5.19887 -16.4102 0
2.07397 -19.7614 0
1.85901 -16.3562 0
14.7278 -16.5077 0
14.6854 -12.9763 0
11.5783 -16.4843 0
11.5082 -12.9803 0
14.6854 -12.9763 0
14.6574 -9.4107 0
11.5082 -12.9803 0
11.4679 -9.46899 0
11.5783 -16.4843 0
11.5082 -12.9803 0
8.41921 -16.4528 0
8.32157 -12.9754 0
11.5082 -12.9803 0
11.4679 -9.46899 0
8.32157 -12.9754 0
8.26332 -9.50352 0
14.6574 -9.4107 0
14.6691 -5.88195 0
11.4679 -9.46899 0
11.4671 -6.00961 0
14.6691 -5.88195 0
14.7257 -2.51334 0
11.4671 -6.00961 0
11.4967 -2.68171 0
11.4679 -9.46899 0
11.4671 -6.00961 0
8.26332 -9.50352 0
8.24554 -6.08268 0
11.4671 -6.00961 0
11.4967 -2.68171 0
8.24554 -6.08268 0
8.25329 -2.75742 0
8.41921 -16.4528 0
8.32157 -12.9754 0
5.19887 -16.4102 0
5.07565 -12.9556 0
8.32157 -12.9754 0
8.26332 -9.50352 0
5.07565 -12.9556 0
5.00194 -9.51089 0
5.19887 -16.4102 0
5.07565 -12.9556 0
1.85901 -16.3562 0
1.71978 -12.9246 0
5.07565 -12.9556 0
5.00194 -9.51089 0
1.71978 -12.9246 0
1.65168 -9.5016 0
8.26332 -9.50352 0
8.24554 -6.08268 0
5.00194 -9.51089 0
4.97079 -6.11266 0
8.24554 -6.08268 0
8.25329 -2.75742 0
4.97079 -6.11266 0
4.96536 -2.77548 0
5.00194 -9.51089 0
4.97079 -6.11266 0
1.65168 -9.5016 0
1.63463 -6.11785 0
4.97079 -6.11266 0
4.96536 -2.77548 0
1.63463 -6.11785 0
1.63486 -2.7753 0
21.7343 -50.0593 0
22.4654 -48.0593 0
19.8886 -50.2769 0
20.4358 -48.267 0
22.4654 -48.0593 0
23.1616 -45.8804 0
20.4358 -48.267 0
20.9576 -46.0779 0
19.8886 -50.2769 0
20.4358 -48.267 0
18.1529 -50.4303 0
18.5151 -48.4138 0
20.4358 -48.267 0
20.9576 -46.0779 0
18.5151 -48.4138 0
18.8615 -46.2179 0
23.1616 -45.8804 0
23.8219 -43.5318 0
20.9576 -46.0779 0
21.453 -43.7189 0
23.8219 -43.5318 0
24.4453 -41.023 0
21.453 -43.7189 0
21.9211 -41.1992 0
20.9576 -46.0779 0
21.453 -43.7189 0
18.8615 -46.2179 0
19.1912 -43.8517 0
21.453 -43.7189 0
21.9211 -41.1992 0
19.1912 -43.8517 0
19.503 -41.3243 0
18.1529 -50.4303 0
18.5151 -48.4138 0
16.4844 -50.5191 0
16.6618 -48.4992 0
18.5151 -48.4138 0
18.8615 -46.2179 0
16.6618 -48.4992 0
16.8326 -46.2999 0
16.4844 -50.5191 0
16.6618 -48.4992 0
14.8443 -50.5444 0
14.8382 -48.5243 0
16.6618 -48.4992 0
16.8326 -46.2999 0
14.8382 -48.5243 0
14.8343 -46.3248 0
18.8615 -46.2179 0
19.1912 -43.8517 0
16.8326 -46.2999 0
16.9961 -43.9299 0
19.1912 -43.8517 0
19.503 -41.3243 0
16.9961 -43.9299 0
17.1512 -41.3981 0
16.8326 -46.2999 0
16.9961 -43.9299 0
14.8343 -46.3248 0
14.832 -43.9542 0
16.9961 -43.9299 0
17.1512 -41.3981 0
14.832 -43.9542 0
14.8307 -41.4212 0
24.4453 -41.023 0
25.0305 -38.3634 0
21.9211 -41.1992 0
22.3606 -38.5282 0
25.0305 -38.3634 0
25.576 -35.5631 0
22.3606 -38.5282 0
22.7705 -35.7161 0
21.9211 -41.1992 0
22.3606 -38.5282 0
19.503 -41.3243 0
19.7959 -38.6451 0
22.3606 -38.5282 0
22.7705 -35.7161 0
19.7959 -38.6451 0
20.0688 -35.8242 0
25.576 -35.5631 0
26.0805 -32.6328 0
22.7705 -35.7161 0
23.1496 -32.7735 0
26.0805 -32.6328 0
26.5431 -29.5836 0
23.1496 -32.7735 0
23.497 -29.7116 0
22.7705 -35.7161 0
23.1496 -32.7735 0
20.0688 -35.8242 0
20.3205 -32.8721 0
23.1496 -32.7735 0
23.497 -29.7116 0
20.3205 -32.8721 0
20.5495 -29.8 0
19.503 -41.3243 0
19.7959 -38.6451 0
17.1512 -41.3981 0
17.2971 -38.7139 0
19.7959 -38.6451 0
20.0688 -35.8242 0
17.2971 -38.7139 0
17.4328 -35.8871 0
17.1512 -41.3981 0
17.2971 -38.7139 0
14.8307 -41.4212 0
14.8298 -38.7352 0
17.2971 -38.7139 0
17.4328 -35.8871 0
14.8298 -38.7352 0
14.8285 -35.9056 0
20.0688 -35.8242 0
20.3205 -32.8721 0
17.4328 -35.8871 0
17.5568 -32.9281 0
20.3205 -32.8721 0
20.5495 -29.8 0
17.5568 -32.9281 0
17.6677 -29.8478 0
17.4328 -35.8871 0
17.5568 -32.9281 0
14.8285 -35.9056 0
14.8258 -32.9427 0
17.5568 -32.9281 0
17.6677 -29.8478 0
14.8258 -32.9427 0
14.8204 -29.8571 0
14.8443 -50.5444 0
14.8382 -48.5243 0
13.1983 -50.5078 0
13.0108 -48.4903 0
14.8382 -48.5243 0
14.8343 -46.3248 0
13.0108 -48.4903 0
12.8337 -46.2935 0
13.1983 -50.5078 0
13.0108 -48.4903 0
11.5144 -50.4108 0
11.1479 -48.3985 0
13.0108 -48.4903 0
12.8337 -46.2935 0
11.1479 -48.3985 0
10.7991 -46.2069 0
14.8343 -46.3248 0
14.832 -43.9542 0
12.8337 -46.2935 0
12.6666 -43.9253 0
14.832 -43.9542 0
14.8307 -41.4212 0
12.6666 -43.9253 0
12.5094 -41.3944 0
12.8337 -46.2935 0
12.6666 -43.9253 0
10.7991 -46.2069 0
10.4682 -43.8439 0
12.6666 -43.9253 0
12.5094 -41.3944 0
10.4682 -43.8439 0
10.1558 -41.318 0
11.5144 -50.4108 0
11.1479 -48.3985 0
9.76174 -50.2543 0
9.21754 -48.2493 0
11.1479 -48.3985 0
10.7991 -46.2069 0
9.21754 -48.2493 0
8.69768 -46.0652 0
9.76174 -50.2543 0
9.21754 -48.2493 0
7.91037 -50.0383 0
7.18656 -48.0423 0
9.21754 -48.2493 0
8.69768 -46.0652 0
7.18656 -48.0423 0
6.49401 -45.8679 0
10.7991 -46.2069 0
10.4682 -43.8439 0
8.69768 -46.0652 0
8.20336 -43.7099 0
10.4682 -43.8439 0
10.1558 -41.318 0
8.20336 -43.7099 0
7.73591 -41.1918 0
8.69768 -46.0652 0
8.20336 -43.7099 0
6.49401 -45.8679 0
5.83486 -43.5227 0
8.20336 -43.7099 0
7.73591 -41.1918 0
5.83486 -43.5227 0
5.21116 -41.0154 0
14.8307 -41.4212 0
14.8298 -38.7352 0
12.5094 -41.3944 0
12.3621 -38.7098 0
14.8298 -38.7352 0
14.8285 -35.9056 0
12.3621 -38.7098 0
12.2245 -35.8809 0
12.5094 -41.3944 0
12.3621 -38.7098 0
10.1558 -41.318 0
9.86261 -38.6381 0
12.3621 -38.7098 0
12.2245 -35.8809 0
9.86261 -38.6381 0
9.58927 -35.8137 0
14.8285 -35.9056 0
14.8258 -32.9427 0
12.2245 -35.8809 0
12.0964 -32.9178 0
14.8258 -32.9427 0
14.8204 -29.8571 0
12.0964 -32.9178 0
11.9772 -29.8308 0
12.2245 -35.8809 0
12.0964 -32.9178 0
9.58927 -35.8137 0
9.33656 -32.8546 0
12.0964 -32.9178 0
11.9772 -29.8308 0
9.33656 -32.8546 0
9.10528 -29.7711 0
10.1558 -41.318 0
9.86261 -38.6381 0
7.73591 -41.1918 0
7.29678 -38.52 0
9.86261 -38.6381 0
9.58927 -35.8137 0
7.29678 -38.52 0
6.88762 -35.7039 0
7.73591 -41.1918 0
7.29678 -38.52 0
5.21116 -41.0154 0
4.62502 -38.3549 0
7.29678 -38.52 0
6.88762 -35.7039 0
4.62502 -38.3549 0
4.07876 -35.5507 0
9.58927 -35.8137 0
9.33656 -32.8546 0
6.88762 -35.7039 0
6.51032 -32.7533 0
9.33656 -32.8546 0
9.10528 -29.7711 0
6.51032 -32.7533 0
6.16714 -29.6785 0
6.88762 -35.7039 0
6.51032 -32.7533 0
4.07876 -35.5507 0
3.57512 -32.6128 0
6.51032 -32.7533 0
6.16714 -29.6785 0
3.57512 -32.6128 0
3.11756 -29.5518 0
14.7522 -58.2464 0
15.7054 -58.106 0
14.7522 -58.5248 0
15.4448 -58.3827 0
15.7054 -58.106 0
16.6482 -57.6883 0
15.4448 -58.3827 0
16.1312 -57.9602 0
14.7522 -58.5248 0
15.4448 -58.3827 0
14.7522 -58.7382 0
15.2183 -58.5933 0
15.4448 -58.3827 0
16.1312 -57.9602 0
15.2183 -58.5933 0
15.6776 -58.1633 0
16.6482 -57.6883 0
17.5715 -57.003 0
16.1312 -57.9602 0
16.8057 -57.2676 0
17.5715 -57.003 0
18.4685 -56.0637 0
16.8057 -57.2676 0
17.4641 -56.3197 0
16.1312 -57.9602 0
16.8057 -57.2676 0
15.6776 -58.1633 0
16.1253 -57.4611 0
16.8057 -57.2676 0
17.4641 -56.3197 0
16.1253 -57.4611 0
16.5591 -56.5032 0
14.7522 -58.7382 0
15.2183 -58.5933 0
14.7522 -58.9102 0
15.0118 -58.7594 0
15.2183 -58.5933 0
15.6776 -58.1633 0
15.0118 -58.7594 0
15.2609 -58.3144 0
14.7522 -58.9102 0
15.0118 -58.7594 0
14.7522 -59.0563 0
14.8154 -58.8937 0
15.0118 -58.7594 0
15.2609 -58.3144 0
14.8154 -58.8937 0
14.8611 -58.4207 0
15.6776 -58.1633 0
16.1253 -57.4611 0
15.2609 -58.3144 0
15.4941 -57.5941 0
16.1253 -57.4611 0
16.5591 -56.5032 0
15.4941 -57.5941 0
15.7113 -56.6203 0
15.2609 -58.3144 0
15.4941 -57.5941 0
14.8611 -58.4207 0
14.8825 -57.6697 0
15.4941 -57.5941 0
15.7113 -56.6203 0
14.8825 -57.6697 0
14.8846 -56.6721 0
18.4685 -56.0637 0
19.3351 -54.8856 0
17.4641 -56.3197 0
18.1033 -55.1323 0
19.3351 -54.8856 0
20.1688 -53.4836 0
18.1033 -55.1323 0
18.7214 -53.7206 0
17.4641 -56.3197 0
18.1033 -55.1323 0
16.5591 -56.5032 0
16.9787 -55.3069 0
18.1033 -55.1323 0
18.7214 -53.7206 0
16.9787 -55.3069 0
17.3841 -53.8875 0
20.1688 -53.4836 0
20.9687 -51.8709 0
18.7214 -53.7206 0
19.3168 -52.0983 0
20.9687 -51.8709 0
21.7343 -50.0593 0
19.3168 -52.0983 0
19.8886 -50.2769 0
18.7214 -53.7206 0
19.3168 -52.0983 0
17.3841 -53.8875 0
17.7756 -52.2582 0
19.3168 -52.0983 0
19.8886 -50.2769 0
17.7756 -52.2582 0
18.1529 -50.4303 0
16.5591 -56.5032 0
16.9787 -55.3069 0
15.7113 -56.6203 0
15.9161 -55.4123 0
16.9787 -55.3069 0
17.3841 -53.8875 0
15.9161 -55.4123 0
16.1119 -53.9851 0
15.7113 -56.6203 0
15.9161 -55.4123 0
14.8846 -56.6721 0
14.876 -55.4494 0
15.9161 -55.4123 0
16.1119 -53.9851 0
14.876 -55.4494 0
14.8641 -54.0147 0
17.3841 -53.8875 0
17.7756 -52.2582 0
16.1119 -53.9851 0
16.301 -52.3507 0
17.7756 -52.2582 0
18.1529 -50.4303 0
16.301 -52.3507 0
16.4844 -50.5191 0
16.1119 -53.9851 0
16.301 -52.3507 0
14.8641 -54.0147 0
14.853 -52.3771 0
16.301 -52.3507 0
16.4844 -50.5191 0
14.853 -52.3771 0
14.8443 -50.5444 0
14.7522 -59.0563 0
14.8154 -58.8937 0
14.7522 -59.186 0
14.6205 -59.001 0
14.8154 -58.8937 0
14.8611 -58.4207 0
14.6205 -59.001 0
14.4589 -58.4789 0
14.7522 -59.186 0
14.6205 -59.001 0
14.7522 -59.3064 0
14.4145 -59.0783 0
14.6205 -59.001 0
14.4589 -58.4789 0
14.4145 -59.0783 0
14.0313 -58.4722 0
14.8611 -58.4207 0
14.8825 -57.6697 0
14.4589 -58.4789 0
14.2625 -57.6814 0
14.8825 -57.6697 0
14.8846 -56.6721 0
14.2625 -57.6814 0
14.0448 -56.6538 0
14.4589 -58.4789 0
14.2625 -57.6814 0
14.0313 -58.4722 0
13.5988 -57.6118 0
14.2625 -57.6814 0
14.0448 -56.6538 0
13.5988 -57.6118 0
13.1529 -56.5568 0
14.7522 -59.3064 0
14.4145 -59.0783 0
14.7522 -59.4341 0
14.1871 -59.1055 0
14.4145 -59.0783 0
14.0313 -58.4722 0
14.1871 -59.1055 0
13.5218 -58.3529 0
14.7522 -59.4341 0
14.1871 -59.1055 0
14.7522 -59.5025 0
13.714 -59.0072 0
14.1871 -59.1055 0
13.5218 -58.3529 0
13.714 -59.0072 0
12.776 -58.0908 0
14.0313 -58.4722 0
13.5988 -57.6118 0
13.5218 -58.3529 0
12.8283 -57.4413 0
13.5988 -57.6118 0
13.1529 -56.5568 0
12.8283 -57.4413 0
12.1668 -56.3805 0
13.5218 -58.3529 0
12.8283 -57.4413 0
12.776 -58.0908 0
11.9107 -57.1914 0
12.8283 -57.4413 0
12.1668 -56.3805 0
11.9107 -57.1914 0
11.0686 -56.1339 0
14.8846 -56.6721 0
14.876 -55.4494 0
14.0448 -56.6538 0
13.8221 -55.4164 0
14.876 -55.4494 0
14.8641 -54.0147 0
13.8221 -55.4164 0
13.6046 -53.9766 0
14.0448 -56.6538 0
13.8221 -55.4164 0
13.1529 -56.5568 0
12.7183 -55.3116 0
13.8221 -55.4164 0
13.6046 -53.9766 0
12.7183 -55.3116 0
12.2997 -53.8716 0
14.8641 -54.0147 0
14.853 -52.3771 0
13.6046 -53.9766 0
13.3963 -52.3387 0
14.853 -52.3771 0
14.8443 -50.5444 0
13.3963 -52.3387 0
13.1983 -50.5078 0
13.6046 -53.9766 0
13.3963 -52.3387 0
12.2997 -53.8716 0
11.8984 -52.2369 0
13.3963 -52.3387 0
13.1983 -50.5078 0
11.8984 -52.2369 0
11.5144 -50.4108 0
13.1529 -56.5568 0
12.7183 -55.3116 0
12.1668 -56.3805 0
11.5315 -55.1369 0
12.7183 -55.3116 0
12.2997 -53.8716 0
11.5315 -55.1369 0
10.9192 -53.702 0
12.1668 -56.3805 0
11.5315 -55.1369 0
11.0686 -56.1339 0
10.245 -54.8972 0
11.5315 -55.1369 0
10.9192 -53.702 0
10.245 -54.8972 0
9.44228 -53.4695 0
12.2997 -53.8716 0
11.8984 -52.2369 0
10.9192 -53.702 0
10.3292 -52.0736 0
11.8984 -52.2369 0
11.5144 -50.4108 0
10.3292 -52.0736 0
9.76174 -50.2543 0
10.9192 -53.702 0
10.3292 -52.0736 0
9.44228 -53.4695 0
8.66313 -51.849 0
10.3292 -52.0736 0
9.76174 -50.2543 0
8.66313 -51.849 0
7.91037 -50.0383 0
7.77004 -50.0593 0
8.5357 -51.8709 0
9.61576 -50.2769 0
10.1875 -52.0983 0
8.5357 -51.8709 0
9.33558 -53.4836 0
10.1875 -52.0983 0
10.783 -53.7206 0
9.61576 -50.2769 0
10.1875 -52.0983 0
11.3515 -50.4303 0
11.7287 -52.2582 0
10.1875 -52.0983 0
10.783 -53.7206 0
11.7287 -52.2582 0
12.1202 -53.8875 0
9.33558 -53.4836 0
10.1693 -54.8856 0
10.783 -53.7206 0
11.401 -55.1323 0
10.1693 -54.8856 0
11.0358 -56.0637 0
11.401 -55.1323 0
12.0402 -56.3197 0
10.783 -53.7206 0
11.401 -55.1323 0
12.1202 -53.8875 0
12.5257 -55.3069 0
11.401 -55.1323 0
12.0402 -56.3197 0
12.5257 -55.3069 0
12.9452 -56.5032 0
11.3515 -50.4303 0
11.7287 -52.2582 0
13.02 -50.5191 0
13.2033 -52.3507 0
11.7287 -52.2582 0
12.1202 -53.8875 0
13.2033 -52.3507 0
13.3925 -53.9851 0
13.02 -50.5191 0
13.2033 -52.3507 0
14.66 -50.5444 0
14.6513 -52.3771 0
13.2033 -52.3507 0
13.3925 -53.9851 0
14.6513 -52.3771 0
14.6402 -54.0147 0
12.1202 -53.8875 0
12.5257 -55.3069 0
13.3925 -53.9851 0
13.5883 -55.4123 0
12.5257 -55.3069 0
12.9452 -56.5032 0
13.5883 -55.4123 0
13.793 -56.6203 0
13.3925 -53.9851 0
13.5883 -55.4123 0
14.6402 -54.0147 0
14.6284 -55.4494 0
13.5883 -55.4123 0
13.793 -56.6203 0
14.6284 -55.4494 0
14.6198 -56.6721 0
11.0358 -56.0637 0
11.9329 -57.003 0
12.0402 -56.3197 0
12.6986 -57.2676 0
11.9329 -57.003 0
12.8562 -57.6883 0
12.6986 -57.2676 0
13.3732 -57.9602 0
12.0402 -56.3197 0
12.6986 -57.2676 0
12.9452 -56.5032 0
13.3791 -57.4611 0
12.6986 -57.2676 0
13.3732 -57.9602 0
13.3791 -57.4611 0
13.8267 -58.1633 0
12.8562 -57.6883 0
13.799 -58.106 0
13.3732 -57.9602 0
14.0595 -58.3827 0
13.799 -58.106 0
14.7522 -58.2464 0
14.0595 -58.3827 0
14.7522 -58.5248 0
13.3732 -57.9602 0
14.0595 -58.3827 0
13.8267 -58.1633 0
14.2861 -58.5933 0
14.0595 -58.3827 0
14.7522 -58.5248 0
14.2861 -58.5933 0
14.7522 -58.7382 0
12.9452 -56.5032 0
13.3791 -57.4611 0
13.793 -56.6203 0
14.0103 -57.5941 0
13.3791 -57.4611 0
13.8267 -58.1633 0
14.0103 -57.5941 0
14.2434 -58.3144 0
13.793 -56.6203 0
14.0103 -57.5941 0
14.6198 -56.6721 0
14.6218 -57.6697 0
14.0103 -57.5941 0
14.2434 -58.3144 0
14.6218 -57.6697 0
14.6433 -58.4207 0
13.8267 -58.1633 0
14.2861 -58.5933 0
14.2434 -58.3144 0
14.4926 -58.7594 0
14.2861 -58.5933 0
14.7522 -58.7382 0
14.4926 -58.7594 0
14.7522 -58.9102 0
14.2434 -58.3144 0
14.4926 -58.7594 0
14.6433 -58.4207 0
14.6889 -58.8937 0
14.4926 -58.7594 0
14.7522 -58.9102 0
14.6889 -58.8937 0
14.7522 -59.0563 0
14.66 -50.5444 0
14.6513 -52.3771 0
16.306 -50.5078 0
16.1081 -52.3387 0
14.6513 -52.3771 0
14.6402 -54.0147 0
16.1081 -52.3387 0
15.8997 -53.9766 0
16.306 -50.5078 0
16.1081 -52.3387 0
17.9899 -50.4108 0
17.606 -52.2369 0
16.1081 -52.3387 0
15.8997 -53.9766 0
17.606 -52.2369 0
17.2046 -53.8716 0
14.6402 -54.0147 0
14.6284 -55.4494 0
15.8997 -53.9766 0
15.6823 -55.4164 0
14.6284 -55.4494 0
14.6198 -56.6721 0
15.6823 -55.4164 0
15.4596 -56.6538 0
15.8997 -53.9766 0
15.6823 -55.4164 0
17.2046 -53.8716 0
16.7861 -55.3116 0
15.6823 -55.4164 0
15.4596 -56.6538 0
16.7861 -55.3116 0
16.3514 -56.5568 0
17.9899 -50.4108 0
17.606 -52.2369 0
19.7426 -50.2543 0
19.1751 -52.0736 0
17.606 -52.2369 0
17.2046 -53.8716 0
19.1751 -52.0736 0
18.5851 -53.702 0
19.7426 -50.2543 0
19.1751 -52.0736 0
21.594 -50.0383 0
20.8412 -51.849 0
19.1751 -52.0736 0
18.5851 -53.702 0
20.8412 -51.849 0
20.0621 -53.4695 0
17.2046 -53.8716 0
16.7861 -55.3116 0
18.5851 -53.702 0
17.9729 -55.1369 0
16.7861 -55.3116 0
16.3514 -56.5568 0
17.9729 -55.1369 0
17.3375 -56.3805 0
18.5851 -53.702 0
17.9729 -55.1369 0
20.0621 -53.4695 0
19.2593 -54.8972 0
17.9729 -55.1369 0
17.3375 -56.3805 0
19.2593 -54.8972 0
18.4357 -56.1339 0
14.6198 -56.6721 0
14.6218 -57.6697 0
15.4596 -56.6538 0
15.2418 -57.6814 0
14.6218 -57.6697 0
14.6433 -58.4207 0
15.2418 -57.6814 0
15.0455 -58.4789 0
15.4596 -56.6538 0
15.2418 -57.6814 0
16.3514 -56.5568 0
15.9055 -57.6118 0
15.2418 -57.6814 0
15.0455 -58.4789 0
15.9055 -57.6118 0
15.4731 -58.4722 0
14.6433 -58.4207 0
14.6889 -58.8937 0
15.0455 -58.4789 0
14.8838 -59.001 0
14.6889 -58.8937 0
14.7522 -59.0563 0
14.8838 -59.001 0
14.7522 -59.186 0
15.0455 -58.4789 0
14.8838 -59.001 0
15.4731 -58.4722 0
15.0899 -59.0783 0
14.8838 -59.001 0
14.7522 -59.186 0
15.0899 -59.0783 0
14.7522 -59.3064 0
16.3514 -56.5568 0
15.9055 -57.6118 0
17.3375 -56.3805 0
16.676 -57.4413 0
15.9055 -57.6118 0
15.4731 -58.4722 0
16.676 -57.4413 0
15.9826 -58.3529 0
17.3375 -56.3805 0
16.676 -57.4413 0
18.4357 -56.1339 0
17.5937 -57.1914 0
16.676 -57.4413 0
15.9826 -58.3529 0
17.5937 -57.1914 0
16.7283 -58.0908 0
15.4731 -58.4722 0
15.0899 -59.0783 0
15.9826 -58.3529 0
15.3172 -59.1055 0
15.0899 -59.0783 0
14.7522 -59.3064 0
15.3172 -59.1055 0
14.7522 -59.4341 0
15.9826 -58.3529 0
15.3172 -59.1055 0
16.7283 -58.0908 0
15.7903 -59.0072 0
15.3172 -59.1055 0
14.7522 -59.4341 0
15.7903 -59.0072 0
14.7522 -59.5025 0
2.9613 -29.5836 0
3.42388 -32.6328 0
6.00735 -29.7116 0
6.35472 -32.7735 0
3.42388 -32.6328 0
3.92839 -35.5631 0
6.35472 -32.7735 0
6.73384 -35.7161 0
6.00735 -29.7116 0
6.35472 -32.7735 0
8.95482 -29.8 0
9.18383 -32.8721 0
6.35472 -32.7735 0
6.73384 -35.7161 0
9.18383 -32.8721 0
9.43553 -35.8242 0
3.92839 -35.5631 0
4.4739 -38.3634 0
6.73384 -35.7161 0
7.14373 -38.5282 0
4.4739 -38.3634 0
5.05908 -41.023 0
7.14373 -38.5282 0
7.58327 -41.1992 0
6.73384 -35.7161 0
7.14373 -38.5282 0
9.43553 -35.8242 0
9.70846 -38.6451 0
7.14373 -38.5282 0
7.58327 -41.1992 0
9.70846 -38.6451 0
10.0014 -41.3243 0
8.95482 -29.8 0
9.18383 -32.8721 0
11.8367 -29.8478 0
11.9475 -32.9281 0