# vtk DataFile Version 3.0
#This file was generated by the deal.II library on 2020/9/2 at 8:38:35
ASCII
DATASET UNSTRUCTURED_GRID

POINTS 1536 double
5 0 0
5.125 0 0
5 0.125 0
5.125 0.125 0
5.125 0 0
5.25 0 0
5.125 0.125 0
5.25 0.125 0
5 0.125 0
5.125 0.125 0
5 0.25 0
5.125 0.25 0
5.125 0.125 0
5.25 0.125 0
5.125 0.25 0
5.25 0.25 0
5.25 0 0
5.375 0 0
5.25 0.125 0
5.375 0.125 0
5.375 0 0
5.5 0 0
5.375 0.125 0
5.5 0.125 0
5.25 0.125 0
5.375 0.125 0
5.25 0.25 0
5.375 0.25 0
5.375 0.125 0
5.5 0.125 0
5.375 0.25 0
5.5 0.25 0
5 0.25 0
5.125 0.25 0
5 0.375 0
5.125 0.375 0
5.125 0.25 0
5.25 0.25 0
5.125 0.375 0
5.25 0.375 0
5 0.375 0
5.125 0.375 0
5 0.5 0
5.125 0.5 0
5.125 0.375 0
5.25 0.375 0
5.125 0.5 0
5.25 0.5 0
5.25 0.25 0
5.375 0.25 0
5.25 0.375 0
5.375 0.375 0
5.375 0.25 0
5.5 0.25 0
5.375 0.375 0
5.5 0.375 0
5.25 0.375 0
5.375 0.375 0
5.25 0.5 0
5.375 0.5 0
5.375 0.375 0
5.5 0.375 0
5.375 0.5 0
5.5 0.5 0
5.5 0 0
5.625 0 0
5.5 0.125 0
5.625 0.125 0
5.625 0 0
5.75 0 0
5.625 0.125 0
5.75 0.125 0
5.5 0.125 0
5.625 0.125 0
5.5 0.25 0
5.625 0.25 0
5.625 0.125 0
5.75 0.125 0
5.625 0.25 0
5.75 0.25 0
5.75 0 0
5.875 0 0
5.75 0.125 0
5.875 0.125 0
5.875 0 0
6 0 0
5.875 0.125 0
6 0.125 0
5.75 0.125 0
5.875 0.125 0
5.75 0.25 0
5.875 0.25 0
5.875 0.125 0
6 0.125 0
5.875 0.25 0
6 0.25 0
5.5 0.25 0
5.625 0.25 0
5.5 0.375 0
5.625 0.375 0
5.625 0.25 0
5.75 0.25 0
5.625 0.375 0
5.75 0.375 0
5.5 0.375 0
5.625 0.375 0
5.5 0.5 0
5.625 0.5 0
5.625 0.375 0
5.75 0.375 0
5.625 0.5 0
5.75 0.5 0
5.75 0.25 0
5.875 0.25 0
5.75 0.375 0
5.875 0.375 0
5.875 0.25 0
6 0.25 0
5.875 0.375 0
6 0.375 0
5.75 0.375 0
5.875 0.375 0
5.75 0.5 0
5.875 0.5 0
5.875 0.375 0
6 0.375 0
5.875 0.5 0
6 0.5 0
5 0.5 0
5.125 0.5 0
5 0.625 0
5.125 0.625 0
5.125 0.5 0
5.25 0.5 0
5.125 0.625 0
5.25 0.625 0
5 0.625 0
5.125 0.625 0
5 0.75 0
5.125 0.75 0
5.125 0.625 0
5.25 0.625 0
5.125 0.75 0
5.25 0.75 0
5.25 0.5 0
5.375 0.5 0
5.25 0.625 0
5.375 0.625 0
5.375 0.5 0
5.5 0.5 0
5.375 0.625 0
5.5 0.625 0
5.25 0.625 0
5.375 0.625 0
5.25 0.75 0
5.375 0.75 0
5.375 0.625 0
5.5 0.625 0
5.375 0.75 0
5.5 0.75 0
5 0.75 0
5.125 0.75 0
5 0.875 0
5.125 0.875 0
5.125 0.75 0
5.25 0.75 0
5.125 0.875 0
5.25 0.875 0
5 0.875 0
5.125 0.875 0
5 1 0
5.125 1 0
5.125 0.875 0
5.25 0.875 0
5.125 1 0
5.25 1 0
5.25 0.75 0
5.375 0.75 0
5.25 0.875 0
5.375 0.875 0
5.375 0.75 0
5.5 0.75 0
5.375 0.875 0
5.5 0.875 0
5.25 0.875 0
5.375 0.875 0
5.25 1 0
5.375 1 0
5.375 0.875 0
5.5 0.875 0
5.375 1 0
5.5 1 0
5.5 0.5 0
5.625 0.5 0
5.5 0.625 0
5.625 0.625 0
5.625 0.5 0
5.75 0.5 0
5.625 0.625 0
5.75 0.625 0
5.5 0.625 0
5.625 0.625 0
5.5 0.75 0
5.625 0.75 0
5.625 0.625 0
5.75 0.625 0
5.625 0.75 0
5.75 0.75 0
5.75 0.5 0
5.875 0.5 0
5.75 0.625 0
5.875 0.625 0
5.875 0.5 0
6 0.5 0
5.875 0.625 0
6 0.625 0
5.75 0.625 0
5.875 0.625 0
5.75 0.75 0
5.875 0.75 0
5.875 0.625 0
6 0.625 0
5.875 0.75 0
6 0.75 0
5.5 0.75 0
5.625 0.75 0
5.5 0.875 0
5.625 0.875 0
5.625 0.75 0
5.75 0.75 0
5.625 0.875 0
5.75 0.875 0
5.5 0.875 0
5.625 0.875 0
5.5 1 0
5.625 1 0
5.625 0.875 0
5.75 0.875 0
5.625 1 0
5.75 1 0
5.75 0.75 0
5.875 0.75 0
5.75 0.875 0
5.875 0.875 0
5.875 0.75 0
6 0.75 0
5.875 0.875 0
6 0.875 0
5.75 0.875 0
5.875 0.875 0
5.75 1 0
5.875 1 0
5.875 0.875 0
6 0.875 0
5.875 1 0
6 1 0
4 0 0
4.125 0 0
4 0.125 0
4.125 0.125 0
4.125 0 0
4.25 0 0
4.125 0.125 0
4.25 0.125 0
4 0.125 0
4.125 0.125 0
4 0.25 0
4.125 0.25 0
4.125 0.125 0
4.25 0.125 0
4.125 0.25 0
4.25 0.25 0
4.25 0 0
4.375 0 0
4.25 0.125 0
4.375 0.125 0
4.375 0 0
4.5 0 0
4.375 0.125 0
4.5 0.125 0
4.25 0.125 0
4.375 0.125 0
4.25 0.25 0
4.375 0.25 0
4.375 0.125 0
4.5 0.125 0
4.375 0.25 0
4.5 0.25 0
4 0.25 0
4.125 0.25 0
4 0.375 0
4.125 0.375 0
4.125 0.25 0
4.25 0.25 0
4.125 0.375 0
4.25 0.375 0
4 0.375 0
4.125 0.375 0
4 0.5 0
4.125 0.5 0
4.125 0.375 0
4.25 0.375 0
4.125 0.5 0
4.25 0.5 0
4.25 0.25 0
4.375 0.25 0
4.25 0.375 0
4.375 0.375 0
4.375 0.25 0
4.5 0.25 0
4.375 0.375 0
4.5 0.375 0
4.25 0.375 0
4.375 0.375 0
4.25 0.5 0
4.375 0.5 0
4.375 0.375 0
4.5 0.375 0
4.375 0.5 0
4.5 0.5 0
4.5 0 0
4.625 0 0
4.5 0.125 0
4.625 0.125 0
4.625 0 0
4.75 0 0
4.625 0.125 0
4.75 0.125 0
4.5 0.125 0
4.625 0.125 0
4.5 0.25 0
4.625 0.25 0
4.625 0.125 0
4.75 0.125 0
4.625 0.25 0
4.75 0.25 0
4.75 0 0
4.875 0 0
4.75 0.125 0
4.875 0.125 0
4.875 0 0
5 0 0
4.875 0.125 0
5 0.125 0
4.75 0.125 0
4.875 0.125 0
4.75 0.25 0
4.875 0.25 0
4.875 0.125 0
5 0.125 0
4.875 0.25 0
5 0.25 0
4.5 0.25 0
4.625 0.25 0
4.5 0.375 0
4.625 0.375 0
4.625 0.25 0
4.75 0.25 0
4.625 0.375 0
4.75 0.375 0
4.5 0.375 0
4.625 0.375 0
4.5 0.5 0
4.625 0.5 0
4.625 0.375 0
4.75 0.375 0
4.625 0.5 0
4.75 0.5 0
4.75 0.25 0
4.875 0.25 0
4.75 0.375 0
4.875 0.375 0
4.875 0.25 0
5 0.25 0
4.875 0.375 0
5 0.375 0
4.75 0.375 0
4.875 0.375 0
4.75 0.5 0
4.875 0.5 0
4.875 0.375 0
5 0.375 0
4.875 0.5 0
5 0.5 0
4 0.5 0
4.125 0.5 0
4 0.625 0
4.125 0.625 0
4.125 0.5 0
4.25 0.5 0
4.125 0.625 0
4.25 0.625 0
4 0.625 0
4.125 0.625 0
4 0.75 0
4.125 0.75 0
4.125 0.625 0
4.25 0.625 0
4.125 0.75 0
4.25 0.75 0
4.25 0.5 0
4.375 0.5 0
4.25 0.625 0
4.375 0.625 0
4.375 0.5 0
4.5 0.5 0
4.375 0.625 0
4.5 0.625 0
4.25 0.625 0
4.375 0.625 0
4.25 0.75 0
4.375 0.75 0
4.375 0.625 0
4.5 0.625 0
4.375 0.75 0
4.5 0.75 0
4 0.75 0
4.125 0.75 0
4 0.875 0
4.125 0.875 0
4.125 0.75 0
4.25 0.75 0
4.125 0.875 0
4.25 0.875 0
4 0.875 0
4.125 0.875 0
4 1 0
4.125 1 0
4.125 0.875 0
4.25 0.875 0
4.125 1 0
4.25 1 0
4.25 0.75 0
4.375 0.75 0
4.25 0.875 0
4.375 0.875 0
4.375 0.75 0
4.5 0.75 0
4.375 0.875 0
4.5 0.875 0
4.25 0.875 0
4.375 0.875 0
4.25 1 0
4.375 1 0
4.375 0.875 0
4.5 0.875 0
4.375 1 0
4.5 1 0
4.5 0.5 0
4.625 0.5 0
4.5 0.625 0
4.625 0.625 0
4.625 0.5 0
4.75 0.5 0
4.625 0.625 0
4.75 0.625 0
4.5 0.625 0
4.625 0.625 0
4.5 0.75 0
4.625 0.75 0
4.625 0.625 0
4.75 0.625 0
4.625 0.75 0
4.75 0.75 0
4.75 0.5 0
4.875 0.5 0
4.75 0.625 0
4.875 0.625 0
4.875 0.5 0
5 0.5 0
4.875 0.625 0
5 0.625 0
4.75 0.625 0
4.875 0.625 0
4.75 0.75 0
4.875 0.75 0
4.875 0.625 0
5 0.625 0
4.875 0.75 0
5 0.75 0
4.5 0.75 0
4.625 0.75 0
4.5 0.875 0
4.625 0.875 0
4.625 0.75 0
4.75 0.75 0
4.625 0.875 0
4.75 0.875 0
4.5 0.875 0
4.625 0.875 0
4.5 1 0
4.625 1 0
4.625 0.875 0
4.75 0.875 0
4.625 1 0
4.75 1 0
4.75 0.75 0
4.875 0.75 0
4.75 0.875 0
4.875 0.875 0
4.875 0.75 0
5 0.75 0
4.875 0.875 0
5 0.875 0
4.75 0.875 0
4.875 0.875 0
4.75 1 0
4.875 1 0
4.875 0.875 0
5 0.875 0
4.875 1 0
5 1 0
3 0 0
3.125 0 0
3 0.125 0
3.125 0.125 0
3.125 0 0
3.25 0 0
3.125 0.125 0
3.25 0.125 0
3 0.125 0
3.125 0.125 0
3 0.25 0
3.125 0.25 0
3.125 0.125 0
3.25 0.125 0
3.125 0.25 0
3.25 0.25 0
3.25 0 0
3.375 0 0
3.25 0.125 0
3.375 0.125 0
3.375 0 0
3.5 0 0
3.375 0.125 0
3.5 0.125 0
3.25 0.125 0
3.375 0.125 0
3.25 0.25 0
3.375 0.25 0
3.375 0.125 0
3.5 0.125 0
3.375 0.25 0
3.5 0.25 0
3 0.25 0
3.125 0.25 0
3 0.375 0
3.125 0.375 0
3.125 0.25 0
3.25 0.25 0
3.125 0.375 0
3.25 0.375 0
3 0.375 0
3.125 0.375 0
3 0.5 0
3.125 0.5 0
3.125 0.375 0
3.25 0.375 0
3.125 0.5 0
3.25 0.5 0
3.25 0.25 0
3.375 0.25 0
3.25 0.375 0
3.375 0.375 0
3.375 0.25 0
3.5 0.25 0
3.375 0.375 0
3.5 0.375 0
3.25 0.375 0
3.375 0.375 0
3.25 0.5 0
3.375 0.5 0
3.375 0.375 0
3.5 0.375 0
3.375 0.5 0
3.5 0.5 0
3.5 0 0
3.625 0 0
3.5 0.125 0
3.625 0.125 0
3.625 0 0
3.75 0 0
3.625 0.125 0
3.75 0.125 0
3.5 0.125 0
3.625 0.125 0
3.5 0.25 0
3.625 0.25 0
3.625 0.125 0
3.75 0.125 0
3.625 0.25 0
3.75 0.25 0
3.75 0 0
3.875 0 0
3.75 0.125 0
3.875 0.125 0
3.875 0 0
4 0 0
3.875 0.125 0
4 0.125 0
3.75 0.125 0
3.875 0.125 0
3.75 0.25 0
3.875 0.25 0
3.875 0.125 0
4 0.125 0
3.875 0.25 0
4 0.25 0
3.5 0.25 0
3.625 0.25 0
3.5 0.375 0
3.625 0.375 0
3.625 0.25 0
3.75 0.25 0
3.625 0.375 0
3.75 0.375 0
3.5 0.375 0
3.625 0.375 0
3.5 0.5 0
3.625 0.5 0
3.625 0.375 0
3.75 0.375 0
3.625 0.5 0
3.75 0.5 0
3.75 0.25 0
3.875 0.25 0
3.75 0.375 0
3.875 0.375 0
3.875 0.25 0
4 0.25 0
3.875 0.375 0
4 0.375 0
3.75 0.375 0
3.875 0.375 0
3.75 0.5 0
3.875 0.5 0
3.875 0.375 0
4 0.375 0
3.875 0.5 0
4 0.5 0
3 0.5 0
3.125 0.5 0
3 0.625 0
3.125 0.625 0
3.125 0.5 0
3.25 0.5 0
3.125 0.625 0
3.25 0.625 0
3 0.625 0
3.125 0.625 0
3 0.75 0
3.125 0.75 0
3.125 0.625 0
3.25 0.625 0
3.125 0.75 0
3.25 0.75 0
3.25 0.5 0
3.375 0.5 0
3.25 0.625 0
3.375 0.625 0
3.375 0.5 0
3.5 0.5 0
3.375 0.625 0
3.5 0.625 0
3.25 0.625 0
3.375 0.625 0
3.25 0.75 0
3.375 0.75 0
3.375 0.625 0
3.5 0.625 0
3.375 0.75 0
3.5 0.75 0
3 0.75 0
3.125 0.75 0
3 0.875 0
3.125 0.875 0
3.125 0.75 0
3.25 0.75 0
3.125 0.875 0
3.25 0.875 0
3 0.875 0
3.125 0.875 0
3 1 0
3.125 1 0
3.125 0.875 0
3.25 0.875 0
3.125 1 0
3.25 1 0
3.25 0.75 0
3.375 0.75 0
3.25 0.875 0
3.375 0.875 0
3.375 0.75 0
3.5 0.75 0
3.375 0.875 0
3.5 0.875 0
3.25 0.875 0
3.375 0.875 0
3.25 1 0
3.375 1 0
3.375 0.875 0
3.5 0.875 0
3.375 1 0
3.5 1 0
3.5 0.5 0
3.625 0.5 0
3.5 0.625 0
3.625 0.625 0
3.625 0.5 0
3.75 0.5 0
3.625 0.625 0
3.75 0.625 0
3.5 0.625 0
3.625 0.625 0
3.5 0.75 0
3.625 0.75 0
3.625 0.625 0
3.75 0.625 0
3.625 0.75 0
3.75 0.75 0
3.75 0.5 0
3.875 0.5 0
3.75 0.625 0
3.875 0.625 0
3.875 0.5 0
4 0.5 0
3.875 0.625 0
4 0.625 0
3.75 0.625 0
3.875 0.625 0
3.75 0.75 0
3.875 0.75 0
3.875 0.625 0
4 0.625 0
3.875 0.75 0
4 0.75 0
3.5 0.75 0
3.625 0.75 0
3.5 0.875 0
3.625 0.875 0
3.625 0.75 0
3.75 0.75 0
3.625 0.875 0
3.75 0.875 0
3.5 0.875 0
3.625 0.875 0
3.5 1 0
3.625 1 0
3.625 0.875 0
3.75 0.875 0
3.625 1 0
3.75 1 0
3.75 0.75 0
3.875 0.75 0
3.75 0.875 0
3.875 0.875 0
3.875 0.75 0
4 0.75 0
3.875 0.875 0
4 0.875 0
3.75 0.875 0
3.875 0.875 0
3.75 1 0
3.875 1 0
3.875 0.875 0
4 0.875 0
3.875 1 0
4 1 0
2 0 0
2.125 0 0
2 0.125 0
2.125 0.125 0
2.125 0 0
2.25 0 0
2.125 0.125 0
2.25 0.125 0
2 0.125 0
2.125 0.125 0
2 0.25 0
2.125 0.25 0
2.125 0.125 0
2.25 0.125 0
2.125 0.25 0
2.25 0.25 0
2.25 0 0
2.375 0 0
2.25 0.125 0
2.375 0.125 0
2.375 0 0
2.5 0 0
2.375 0.125 0
2.5 0.125 0
2.25 0.125 0
2.375 0.125 0
2.25 0.25 0
2.375 0.25 0
2.375 0.125 0
2.5 0.125 0
2.375 0.25 0
2.5 0.25 0
2 0.25 0
2.125 0.25 0
2 0.375 0
2.125 0.375 0
2.125 0.25 0
2.25 0.25 0
2.125 0.375 0
2.25 0.375 0
2 0.375 0
2.125 0.375 0
2 0.5 0
2.125 0.5 0
2.125 0.375 0
2.25 0.375 0
2.125 0.5 0
2.25 0.5 0
2.25 0.25 0
2.375 0.25 0
2.25 0.375 0
2.375 0.375 0
2.375 0.25 0
[...]
POINT_DATA 1536
VECTORS displacements double
18.5496 -20.4872 0
18.8133 -18.2809 0
16.411 -20.5681 0
16.6085 -18.3528 0
18.8133 -18.2809 0
19.0489 -16.0148 0
16.6085 -18.3528 0
16.7834 -16.0782 0
16.411 -20.5681 0
16.6085 -18.3528 0
14.3302 -20.6242 0
14.4586 -18.4012 0
16.6085 -18.3528 0
16.7834 -16.0782 0
14.4586 -18.4012 0
14.5687 -16.1182 0
19.0489 -16.0148 0
19.2606 -13.6951 0
16.7834 -16.0782 0
16.9365 -13.7508 0
19.2606 -13.6951 0
19.4564 -11.3242 0
16.9365 -13.7508 0
17.0686 -11.3738 0
16.7834 -16.0782 0
16.9365 -13.7508 0
14.5687 -16.1182 0
14.6586 -13.7817 0
16.9365 -13.7508 0
17.0686 -11.3738 0
14.6586 -13.7817 0
14.7247 -11.394 0
14.3302 -20.6242 0
14.4586 -18.4012 0
12.2891 -20.6549 0
12.3489 -18.4253 0
14.4586 -18.4012 0
14.5687 -16.1182 0
12.3489 -18.4253 0
12.3963 -16.1347 0
12.2891 -20.6549 0
12.3489 -18.4253 0
10.2699 -20.6612 0
10.2637 -18.4271 0
12.3489 -18.4253 0
12.3963 -16.1347 0
10.2637 -18.4271 0
10.253 -16.1312 0
14.5687 -16.1182 0
14.6586 -13.7817 0
12.3963 -16.1347 0
12.4286 -13.7895 0
14.6586 -13.7817 0
14.7247 -11.394 0
12.4286 -13.7895 0
12.4432 -11.3934 0
12.3963 -16.1347 0
12.4286 -13.7895 0
10.253 -16.1312 0
10.2364 -13.7809 0
12.4286 -13.7895 0
12.4432 -11.3934 0
10.2364 -13.7809 0
10.2136 -11.3832 0
19.4564 -11.3242 0
19.6503 -8.8974 0
17.0686 -11.3738 0
17.1776 -8.94038 0
19.6503 -8.8974 0
19.8713 -6.37579 0
17.1776 -8.94038 0
17.2518 -6.42723 0
17.0686 -11.3738 0
17.1776 -8.94038 0
14.7247 -11.394 0
14.7605 -8.95009 0
17.1776 -8.94038 0
17.2518 -6.42723 0
14.7605 -8.95009 0
14.7567 -6.42332 0
19.8713 -6.37579 0
20.1536 -3.70227 0
17.2518 -6.42723 0
17.2407 -3.69181 0
20.1536 -3.70227 0
20.4366 0 0
17.2407 -3.69181 0
17.3137 -0.779228 0
17.2518 -6.42723 0
17.2407 -3.69181 0
14.7567 -6.42332 0
14.7535 -3.80351 0
17.2407 -3.69181 0
17.3137 -0.779228 0
14.7535 -3.80351 0
14.8238 -1.25368 0
14.7247 -11.394 0
14.7605 -8.95009 0
12.4432 -11.3934 0
12.4387 -8.9458 0
14.7605 -8.95009 0
14.7567 -6.42332 0
12.4387 -8.9458 0
12.4263 -6.44971 0
12.4432 -11.3934 0
12.4387 -8.9458 0
10.2136 -11.3832 0
10.1886 -8.94691 0
12.4387 -8.9458 0
12.4263 -6.44971 0
10.1886 -8.94691 0
10.1728 -6.49089 0
14.7567 -6.42332 0
14.7535 -3.80351 0
12.4263 -6.44971 0
12.4357 -3.94476 0
14.7535 -3.80351 0
14.8238 -1.25368 0
12.4357 -3.94476 0
12.4884 -1.54319 0
12.4263 -6.44971 0
12.4357 -3.94476 0
10.1728 -6.49089 0
10.1809 -4.05816 0
12.4357 -3.94476 0
12.4884 -1.54319 0
10.1809 -4.05816 0
10.2152 -1.72146 0
10.2699 -20.6612 0
10.2637 -18.4271 0
8.25341 -20.6447 0
8.18399 -18.4093 0
10.2637 -18.4271 0
10.253 -16.1312 0
8.18399 -18.4093 0
8.11997 -16.1118 0
8.25341 -20.6447 0
8.18399 -18.4093 0
6.21875 -20.6069 0
6.08802 -18.3739 0
8.18399 -18.4093 0
8.11997 -16.1118 0
6.08802 -18.3739 0
5.97357 -16.0791 0
10.253 -16.1312 0
10.2364 -13.7809 0
8.11997 -16.1118 0
8.06106 -13.7614 0
10.2364 -13.7809 0
10.2136 -11.3832 0
8.06106 -13.7614 0
8.00859 -11.3689 0
8.11997 -16.1118 0
8.06106 -13.7614 0
5.97357 -16.0791 0
5.87598 -13.7332 0
8.06106 -13.7614 0
8.00859 -11.3689 0
5.87598 -13.7332 0
5.79669 -11.3496 0
6.21875 -20.6069 0
6.08802 -18.3739 0
4.14296 -20.5484 0
3.95111 -18.3219 0
6.08802 -18.3739 0
5.97357 -16.0791 0
3.95111 -18.3219 0
3.78682 -16.0342 0
4.14296 -20.5484 0
3.95111 -18.3219 0
2.00158 -20.4683 0
1.74645 -18.2523 0
3.95111 -18.3219 0
3.78682 -16.0342 0
1.74645 -18.2523 0
1.52989 -15.9759 0
5.97357 -16.0791 0
5.87598 -13.7332 0
3.78682 -16.0342 0
3.6516 -13.6966 0
5.87598 -13.7332 0
5.79669 -11.3496 0
3.6516 -13.6966 0
3.54688 -11.3236 0
3.78682 -16.0342 0
3.6516 -13.6966 0
1.52989 -15.9759 0
1.35524 -13.6507 0
3.6516 -13.6966 0
3.54688 -11.3236 0
1.35524 -13.6507 0
1.22576 -11.2912 0
10.2136 -11.3832 0
10.1886 -8.94691 0
8.00859 -11.3689 0
7.96694 -8.94944 0
10.1886 -8.94691 0
10.1728 -6.49089 0
7.96694 -8.94944 0
7.94336 -6.52628 0
8.00859 -11.3689 0
7.96694 -8.94944 0
5.79669 -11.3496 0
5.73826 -8.94633 0
7.96694 -8.94944 0
7.94336 -6.52628 0
5.73826 -8.94633 0
5.70363 -6.54693 0
10.1728 -6.49089 0
10.1809 -4.05816 0
7.94336 -6.52628 0
7.94323 -4.13487 0
10.1809 -4.05816 0
10.2152 -1.72146 0
7.94323 -4.13487 0
7.96097 -1.822 0
7.94336 -6.52628 0
7.94323 -4.13487 0
5.70363 -6.54693 0
5.69314 -4.17837 0
7.94323 -4.13487 0
7.96097 -1.822 0
5.69314 -4.17837 0
5.69772 -1.86666 0
5.79669 -11.3496 0
5.73826 -8.94633 0
3.54688 -11.3236 0
3.47329 -8.93431 0
5.73826 -8.94633 0
5.70363 -6.54693 0
3.47329 -8.93431 0
3.42952 -6.5513 0
3.54688 -11.3236 0
3.47329 -8.93431 0
1.22576 -11.2912 0
1.1428 -8.91588 0
3.47329 -8.93431 0
3.42952 -6.5513 0
1.1428 -8.91588 0
1.10258 -6.54582 0
5.70363 -6.54693 0
5.69314 -4.17837 0
3.42952 -6.5513 0
3.41108 -4.19614 0
5.69314 -4.17837 0
5.69772 -1.86666 0
3.41108 -4.19614 0
3.40787 -1.87719 0
3.42952 -6.5513 0
3.41108 -4.19614 0
1.10258 -6.54582 0
1.09262 -4.19923 0
3.41108 -4.19614 0
3.40787 -1.87719 0
1.09262 -4.19923 0
1.09279 -1.87705 0
15.3228 -35.0151 0
15.8339 -33.5774 0
13.9896 -35.1682 0
14.3724 -33.7218 0
15.8339 -33.5774 0
16.3147 -32.016 0
14.3724 -33.7218 0
14.7329 -32.1517 0
13.9896 -35.1682 0
14.3724 -33.7218 0
12.7212 -35.2765 0
12.975 -33.8242 0
14.3724 -33.7218 0
14.7329 -32.1517 0
12.975 -33.8242 0
13.2145 -32.2481 0
16.3147 -32.016 0
16.765 -30.3387 0
14.7329 -32.1517 0
15.0708 -30.4655 0
16.765 -30.3387 0
17.1846 -28.5531 0
15.0708 -30.4655 0
15.3858 -28.671 0
14.7329 -32.1517 0
15.0708 -30.4655 0
13.2145 -32.2481 0
13.4394 -30.5558 0
15.0708 -30.4655 0
15.3858 -28.671 0
13.4394 -30.5558 0
13.6491 -28.7548 0
12.7212 -35.2765 0
12.975 -33.8242 0
11.4927 -35.3398 0
11.6177 -33.8844 0
12.975 -33.8242 0
13.2145 -32.2481 0
11.6177 -33.8844 0
11.7363 -32.3051 0
11.4927 -35.3398 0
11.6177 -33.8844 0
10.2816 -35.3586 0
10.2788 -33.9028 0
11.6177 -33.8844 0
11.7363 -32.3051 0
10.2788 -33.9028 0
10.2771 -32.323 0
13.2145 -32.2481 0
13.4394 -30.5558 0
11.7363 -32.3051 0
11.8481 -30.6093 0
13.4394 -30.5558 0
13.6491 -28.7548 0
11.8481 -30.6093 0
11.9527 -28.8047 0
11.7363 -32.3051 0
11.8481 -30.6093 0
10.2771 -32.323 0
10.2763 -30.6264 0
11.8481 -30.6093 0
11.9527 -28.8047 0
10.2763 -30.6264 0
10.2758 -28.8207 0
17.1846 -28.5531 0
17.5731 -26.6671 0
15.3858 -28.671 0
15.6775 -26.7758 0
17.5731 -26.6671 0
17.9301 -24.6886 0
15.6775 -26.7758 0
15.9457 -24.788 0
15.3858 -28.671 0
15.6775 -26.7758 0
13.6491 -28.7548 0
13.8435 -26.8531 0
15.6775 -26.7758 0
15.9457 -24.788 0
13.8435 -26.8531 0
14.0221 -24.8586 0
17.9301 -24.6886 0
18.2555 -22.6258 0
15.9457 -24.788 0
16.1902 -22.716 0
18.2555 -22.6258 0
18.5496 -20.4872 0
16.1902 -22.716 0
16.411 -20.5681 0
15.9457 -24.788 0
16.1902 -22.716 0
14.0221 -24.8586 0
14.1844 -22.7795 0
16.1902 -22.716 0
16.411 -20.5681 0
14.1844 -22.7795 0
14.3302 -20.6242 0
13.6491 -28.7548 0
13.8435 -26.8531 0
11.9527 -28.8047 0
12.0496 -26.8989 0
13.8435 -26.8531 0
14.0221 -24.8586 0
12.0496 -26.8989 0
12.1384 -24.8999 0
11.9527 -28.8047 0
12.0496 -26.8989 0
10.2758 -28.8207 0
10.2754 -26.9134 0
12.0496 -26.8989 0
12.1384 -24.8999 0
10.2754 -26.9134 0
10.2747 -24.9124 0
14.0221 -24.8586 0
14.1844 -22.7795 0
12.1384 -24.8999 0
12.2185 -22.8158 0
14.1844 -22.7795 0
14.3302 -20.6242 0
12.2185 -22.8158 0
12.2891 -20.6549 0
12.1384 -24.8999 0
12.2185 -22.8158 0
10.2747 -24.9124 0
10.2732 -22.8257 0
12.2185 -22.8158 0
12.2891 -20.6549 0
10.2732 -22.8257 0
10.2699 -20.6612 0
10.2816 -35.3586 0
10.2788 -33.9028 0
9.06771 -35.334 0
8.9382 -33.8802 0
10.2788 -33.9028 0
10.2771 -32.323 0
8.9382 -33.8802 0
8.81698 -32.3023 0
9.06771 -35.334 0
8.9382 -33.8802 0
7.83191 -35.2666 0
7.57672 -33.8171 0
8.9382 -33.8802 0
8.81698 -32.3023 0
7.57672 -33.8171 0
7.33647 -32.2434 0
10.2771 -32.323 0
10.2763 -30.6264 0
8.81698 -32.3023 0
8.70383 -30.6075 0
10.2763 -30.6264 0
10.2758 -28.8207 0
8.70383 -30.6075 0
8.59861 -28.8031 0
8.81698 -32.3023 0
8.70383 -30.6075 0
7.33647 -32.2434 0
7.11131 -30.5526 0
8.70383 -30.6075 0
8.59861 -28.8031 0
7.11131 -30.5526 0
6.90142 -28.7523 0
7.83191 -35.2666 0
7.57672 -33.8171 0
6.55564 -35.1569 0
6.17515 -33.7136 0
7.57672 -33.8171 0
7.33647 -32.2434 0
6.17515 -33.7136 0
5.81593 -32.1463 0
6.55564 -35.1569 0
6.17515 -33.7136 0
5.21987 -35.0049 0
4.71325 -33.5697 0
6.17515 -33.7136 0
5.81593 -32.1463 0
4.71325 -33.5697 0
4.23442 -32.0107 0
7.33647 -32.2434 0
7.11131 -30.5526 0
5.81593 -32.1463 0
5.47865 -30.4619 0
7.11131 -30.5526 0
6.90142 -28.7523 0
5.47865 -30.4619 0
5.16391 -28.6679 0
5.81593 -32.1463 0
5.47865 -30.4619 0
4.23442 -32.0107 0
3.78452 -30.335 0
5.47865 -30.4619 0
5.16391 -28.6679 0
3.78452 -30.335 0
3.36452 -28.5499 0
10.2758 -28.8207 0
10.2754 -26.9134 0
8.59861 -28.8031 0
8.5012 -26.8969 0
10.2754 -26.9134 0
10.2747 -24.9124 0
8.5012 -26.8969 0
8.41143 -24.8966 0
8.59861 -28.8031 0
8.5012 -26.8969 0
6.90142 -28.7523 0
6.70704 -26.8498 0
8.5012 -26.8969 0
8.41143 -24.8966 0
6.70704 -26.8498 0
6.52836 -24.8529 0
10.2747 -24.9124 0
10.2732 -22.8257 0
8.41143 -24.8966 0
8.32899 -22.8099 0
10.2732 -22.8257 0
10.2699 -20.6612 0
8.32899 -22.8099 0
8.25341 -20.6447 0
8.41143 -24.8966 0
8.32899 -22.8099 0
6.52836 -24.8529 0
6.36556 -22.7694 0
8.32899 -22.8099 0
8.25341 -20.6447 0
6.36556 -22.7694 0
6.21875 -20.6069 0
6.90142 -28.7523 0
6.70704 -26.8498 0
5.16391 -28.6679 0
4.87232 -26.7719 0
6.70704 -26.8498 0
6.52836 -24.8529 0
4.87232 -26.7719 0
4.60449 -24.7815 0
5.16391 -28.6679 0
4.87232 -26.7719 0
3.36452 -28.5499 0
2.97527 -26.663 0
4.87232 -26.7719 0
4.60449 -24.7815 0
2.97527 -26.663 0
2.61762 -24.6819 0
6.52836 -24.8529 0
6.36556 -22.7694 0
4.60449 -24.7815 0
4.3611 -22.7043 0
6.36556 -22.7694 0
6.21875 -20.6069 0
4.3611 -22.7043 0
4.14296 -20.5484 0
4.60449 -24.7815 0
4.3611 -22.7043 0
2.61762 -24.6819 0
2.29261 -22.6143 0
4.3611 -22.7043 0
4.14296 -20.5484 0
2.29261 -22.6143 0
2.00158 -20.4683 0
10.2183 -40.9506 0
10.9297 -40.848 0
10.2183 -41.159 0
10.7389 -41.0548 0
10.9297 -40.848 0
11.6315 -40.5429 0
10.7389 -41.0548 0
11.2532 -40.7453 0
10.2183 -41.159 0
10.7389 -41.0548 0
10.2183 -41.3175 0
10.569 -41.2111 0
10.7389 -41.0548 0
11.2532 -40.7453 0
10.569 -41.2111 0
10.9137 -40.8957 0
11.6315 -40.5429 0
12.3154 -40.043 0
11.2532 -40.7453 0
11.7557 -40.2387 0
12.3154 -40.043 0
12.9753 -39.3591 0
11.7557 -40.2387 0
12.2424 -39.5469 0
11.2532 -40.7453 0
11.7557 -40.2387 0
10.9137 -40.8957 0
11.2481 -40.3815 0
11.7557 -40.2387 0
12.2424 -39.5469 0
11.2481 -40.3815 0
11.5696 -39.6815 0
10.2183 -41.3175 0
10.569 -41.2111 0
10.2183 -41.4395 0
10.411 -41.3291 0
10.569 -41.2111 0
10.9137 -40.8957 0
10.411 -41.3291 0
10.5961 -41.0035 0
10.2183 -41.4395 0
10.411 -41.3291 0
10.2183 -41.5346 0
10.2594 -41.4166 0
10.411 -41.3291 0
10.5961 -41.0035 0
10.2594 -41.4166 0
10.2889 -41.0728 0
10.9137 -40.8957 0
11.2481 -40.3815 0
10.5961 -41.0035 0
10.7693 -40.4769 0
11.2481 -40.3815 0
11.5696 -39.6815 0
10.7693 -40.4769 0
10.9304 -39.766 0
10.5961 -41.0035 0
10.7693 -40.4769 0
10.2889 -41.0728 0
10.3024 -40.5265 0
10.7693 -40.4769 0
10.9304 -39.766 0
10.3024 -40.5265 0
10.3036 -39.8006 0
12.9753 -39.3591 0
13.6072 -38.5032 0
12.2424 -39.5469 0
12.7104 -38.6824 0
13.6072 -38.5032 0
14.2095 -37.4869 0
12.7104 -38.6824 0
13.1581 -37.6575 0
12.2424 -39.5469 0
12.7104 -38.6824 0
11.5696 -39.6815 0
11.8777 -38.8096 0
12.7104 -38.6824 0
13.1581 -37.6575 0
11.8777 -38.8096 0
12.1724 -37.7779 0
14.2095 -37.4869 0
14.7813 -36.3211 0
13.1581 -37.6575 0
13.5847 -36.4829 0
14.7813 -36.3211 0
15.3228 -35.0151 0
13.5847 -36.4829 0
13.9896 -35.1682 0
13.1581 -37.6575 0
13.5847 -36.4829 0
12.1724 -37.7779 0
12.4536 -36.5971 0
13.5847 -36.4829 0
13.9896 -35.1682 0
12.4536 -36.5971 0
12.7212 -35.2765 0
11.5696 -39.6815 0
11.8777 -38.8096 0
10.9304 -39.766 0
11.0814 -38.8858 0
11.8777 -38.8096 0
12.1724 -37.7779 0
11.0814 -38.8858 0
11.2247 -37.8485 0
10.9304 -39.766 0
11.0814 -38.8858 0
10.3036 -39.8006 0
10.2984 -38.9116 0
11.0814 -38.8858 0
11.2247 -37.8485 0
10.2984 -38.9116 0
10.2917 -37.8699 0
12.1724 -37.7779 0
12.4536 -36.5971 0
11.2247 -37.8485 0
11.3616 -36.6637 0
12.4536 -36.5971 0
12.7212 -35.2765 0
11.3616 -36.6637 0
11.4927 -35.3398 0
11.2247 -37.8485 0
11.3616 -36.6637 0
10.2917 -37.8699 0
10.2859 -36.6833 0
11.3616 -36.6637 0
11.4927 -35.3398 0
10.2859 -36.6833 0
10.2816 -35.3586 0
10.2183 -41.5346 0
10.2594 -41.4166 0
10.2183 -41.6111 0
10.1094 -41.4786 0
10.2594 -41.4166 0
10.2889 -41.0728 0
10.1094 -41.4786 0
9.98099 -41.1027 0
10.2183 -41.6111 0
10.1094 -41.4786 0
10.2183 -41.6792 0
9.95451 -41.5171 0
10.1094 -41.4786 0
9.98099 -41.1027 0
9.95451 -41.5171 0
9.65777 -41.084 0
10.2889 -41.0728 0
10.3024 -40.5265 0
9.98099 -41.1027 0
9.83059 -40.5266 0
10.3024 -40.5265 0
10.3036 -39.8006 0
9.83059 -40.5266 0
9.66885 -39.7828 0
9.98099 -41.1027 0
9.83059 -40.5266 0
9.65777 -41.084 0
9.33131 -40.4674 0
9.83059 -40.5266 0
9.66885 -39.7828 0
9.33131 -40.4674 0
9.00269 -39.7083 0
10.2183 -41.6792 0
9.95451 -41.5171 0
10.2183 -41.7587 0
9.78324 -41.5247 0
9.95451 -41.5171 0
9.65777 -41.084 0
9.78324 -41.5247 0
9.28021 -40.988 0
10.2183 -41.7587 0
9.78324 -41.5247 0
10.2183 -41.8279 0
9.44216 -41.4579 0
9.78324 -41.5247 0
9.28021 -40.988 0
9.44216 -41.4579 0
8.74551 -40.7919 0
9.65777 -41.084 0
9.33131 -40.4674 0
9.28021 -40.988 0
8.76543 -40.338 0
9.33131 -40.4674 0
9.00269 -39.7083 0
8.76543 -40.338 0
8.28058 -39.578 0
9.28021 -40.988 0
8.76543 -40.338 0
8.74551 -40.7919 0
8.10769 -40.1536 0
8.76543 -40.338 0
8.28058 -39.578 0
8.10769 -40.1536 0
7.49034 -39.3976 0
10.3036 -39.8006 0
10.2984 -38.9116 0
9.66885 -39.7828 0
9.50739 -38.8861 0
10.2984 -38.9116 0
10.2917 -37.8699 0
9.50739 -38.8861 0
9.35241 -37.8427 0
9.66885 -39.7828 0
9.50739 -38.8861 0
9.00269 -39.7083 0
8.6873 -38.8092 0
9.50739 -38.8861 0
9.35241 -37.8427 0
8.6873 -38.8092 0
8.38706 -37.7676 0
10.2917 -37.8699 0
10.2859 -36.6833 0
9.35241 -37.8427 0
9.20573 -36.6569 0
10.2859 -36.6833 0
10.2816 -35.3586 0
9.20573 -36.6569 0
9.06771 -35.334 0
9.35241 -37.8427 0
9.20573 -36.6569 0
8.38706 -37.7676 0
8.102 -36.5853 0
9.20573 -36.6569 0
9.06771 -35.334 0
8.102 -36.5853 0
7.83191 -35.2666 0
9.00269 -39.7083 0
8.6873 -38.8092 0
8.28058 -39.578 0
7.81902 -38.6823 0
8.6873 -38.8092 0
8.38706 -37.7676 0
7.81902 -38.6823 0
7.37798 -37.646 0
8.28058 -39.578 0
7.81902 -38.6823 0
7.49034 -39.3976 0
6.8904 -38.5085 0
7.81902 -38.6823 0
7.37798 -37.646 0
6.8904 -38.5085 0
6.31042 -37.479 0
8.38706 -37.7676 0
8.102 -36.5853 0
7.37798 -37.646 0
6.95678 -36.4696 0
8.102 -36.5853 0
7.83191 -35.2666 0
6.95678 -36.4696 0
6.55564 -35.1569 0
7.37798 -37.646 0
6.95678 -36.4696 0
6.31042 -37.479 0
5.75285 -36.3098 0
6.95678 -36.4696 0
6.55564 -35.1569 0
5.75285 -36.3098 0
5.21987 -35.0049 0
5.11381 -35.0151 0
5.65524 -36.3211 0
6.44699 -35.1682 0
6.85186 -36.4829 0
5.65524 -36.3211 0
6.22709 -37.4869 0
6.85186 -36.4829 0
7.27843 -37.6575 0
6.44699 -35.1682 0
6.85186 -36.4829 0
7.71534 -35.2765 0
7.98298 -36.5971 0
6.85186 -36.4829 0
7.27843 -37.6575 0
7.98298 -36.5971 0
8.26418 -37.7779 0
6.22709 -37.4869 0
6.82933 -38.5032 0
7.27843 -37.6575 0
7.72617 -38.6824 0
6.82933 -38.5032 0
7.4613 -39.3591 0
7.72617 -38.6824 0
8.19419 -39.5469 0
7.27843 -37.6575 0
7.72617 -38.6824 0
8.26418 -37.7779 0
8.55882 -38.8096 0
7.72617 -38.6824 0
8.19419 -39.5469 0
8.55882 -38.8096 0
8.86693 -39.6815 0
7.71534 -35.2765 0
7.98298 -36.5971 0
8.94387 -35.3398 0
9.07491 -36.6637 0
7.98298 -36.5971 0
8.26418 -37.7779 0
9.07491 -36.6637 0
9.21185 -37.8485 0
8.94387 -35.3398 0
9.07491 -36.6637 0
10.1549 -35.3586 0
10.1506 -36.6833 0
9.07491 -36.6637 0
9.21185 -37.8485 0
10.1506 -36.6833 0
10.1448 -37.8699 0
8.26418 -37.7779 0
8.55882 -38.8096 0
9.21185 -37.8485 0
9.35514 -38.8858 0
8.55882 -38.8096 0
8.86693 -39.6815 0
9.35514 -38.8858 0
9.50618 -39.766 0
9.21185 -37.8485 0
9.35514 -38.8858 0
10.1448 -37.8699 0
10.1381 -38.9116 0
9.35514 -38.8858 0
9.50618 -39.766 0
10.1381 -38.9116 0
10.133 -39.8006 0
7.4613 -39.3591 0
8.12114 -40.043 0
8.19419 -39.5469 0
8.68084 -40.2387 0
8.12114 -40.043 0
8.80503 -40.5429 0
8.68084 -40.2387 0
9.18338 -40.7453 0
8.19419 -39.5469 0
8.68084 -40.2387 0
8.86693 -39.6815 0
9.18851 -40.3815 0
8.68084 -40.2387 0
9.18338 -40.7453 0
9.18851 -40.3815 0
9.52283 -40.8957 0
8.80503 -40.5429 0
9.50685 -40.848 0
9.18338 -40.7453 0
9.69768 -41.0548 0
9.50685 -40.848 0
10.2183 -40.9506 0
9.69768 -41.0548 0
10.2183 -41.159 0
9.18338 -40.7453 0
9.69768 -41.0548 0
9.52283 -40.8957 0
9.86757 -41.2111 0
9.69768 -41.0548 0
10.2183 -41.159 0
9.86757 -41.2111 0
10.2183 -41.3175 0
8.86693 -39.6815 0
9.18851 -40.3815 0
9.50618 -39.766 0
9.66724 -40.4769 0
9.18851 -40.3815 0
9.52283 -40.8957 0
9.66724 -40.4769 0
9.84042 -41.0035 0
9.50618 -39.766 0
9.66724 -40.4769 0
10.133 -39.8006 0
10.1342 -40.5265 0
9.66724 -40.4769 0
9.84042 -41.0035 0
10.1342 -40.5265 0
10.1477 -41.0728 0
9.52283 -40.8957 0
9.86757 -41.2111 0
9.84042 -41.0035 0
10.0255 -41.3291 0
9.86757 -41.2111 0
10.2183 -41.3175 0
10.0255 -41.3291 0
10.2183 -41.4395 0
9.84042 -41.0035 0
10.0255 -41.3291 0
10.1477 -41.0728 0
10.1772 -41.4166 0
10.0255 -41.3291 0
10.2183 -41.4395 0
10.1772 -41.4166 0
10.2183 -41.5346 0
10.1549 -35.3586 0
10.1506 -36.6833 0
11.3689 -35.334 0
11.2308 -36.6569 0
10.1506 -36.6833 0
10.1448 -37.8699 0
11.2308 -36.6569 0
11.0842 -37.8427 0
11.3689 -35.334 0
11.2308 -36.6569 0
12.6047 -35.2666 0
12.3346 -36.5853 0
11.2308 -36.6569 0
11.0842 -37.8427 0
12.3346 -36.5853 0
12.0495 -37.7676 0
10.1448 -37.8699 0
10.1381 -38.9116 0
11.0842 -37.8427 0
10.9292 -38.8861 0
10.1381 -38.9116 0
10.133 -39.8006 0
10.9292 -38.8861 0
10.7677 -39.7828 0
11.0842 -37.8427 0
10.9292 -38.8861 0
12.0495 -37.7676 0
11.7493 -38.8092 0
10.9292 -38.8861 0
10.7677 -39.7828 0
11.7493 -38.8092 0
11.4339 -39.7083 0
12.6047 -35.2666 0
12.3346 -36.5853 0
13.8809 -35.1569 0
13.4798 -36.4696 0
12.3346 -36.5853 0
12.0495 -37.7676 0
13.4798 -36.4696 0
13.0586 -37.646 0
13.8809 -35.1569 0
13.4798 -36.4696 0
15.2167 -35.0049 0
14.6837 -36.3098 0
13.4798 -36.4696 0
13.0586 -37.646 0
14.6837 -36.3098 0
14.1261 -37.479 0
12.0495 -37.7676 0
11.7493 -38.8092 0
13.0586 -37.646 0
12.6175 -38.6823 0
11.7493 -38.8092 0
11.4339 -39.7083 0
12.6175 -38.6823 0
12.156 -39.578 0
13.0586 -37.646 0
12.6175 -38.6823 0
14.1261 -37.479 0
13.5462 -38.5085 0
12.6175 -38.6823 0
12.156 -39.578 0
13.5462 -38.5085 0
12.9462 -39.3976 0
10.133 -39.8006 0
10.1342 -40.5265 0
10.7677 -39.7828 0
10.606 -40.5266 0
10.1342 -40.5265 0
10.1477 -41.0728 0
10.606 -40.5266 0
10.4556 -41.1027 0
10.7677 -39.7828 0
10.606 -40.5266 0
11.4339 -39.7083 0
11.1052 -40.4674 0
10.606 -40.5266 0
10.4556 -41.1027 0
11.1052 -40.4674 0
10.7788 -41.084 0
10.1477 -41.0728 0
10.1772 -41.4166 0
10.4556 -41.1027 0
10.3271 -41.4786 0
10.1772 -41.4166 0
10.2183 -41.5346 0
10.3271 -41.4786 0
10.2183 -41.6111 0
10.4556 -41.1027 0
10.3271 -41.4786 0
10.7788 -41.084 0
10.4821 -41.5171 0
10.3271 -41.4786 0
10.2183 -41.6111 0
10.4821 -41.5171 0
10.2183 -41.6792 0
11.4339 -39.7083 0
11.1052 -40.4674 0
12.156 -39.578 0
11.6711 -40.338 0
11.1052 -40.4674 0
10.7788 -41.084 0
11.6711 -40.338 0
11.1564 -40.988 0
12.156 -39.578 0
11.6711 -40.338 0
12.9462 -39.3976 0
12.3289 -40.1536 0
11.6711 -40.338 0
11.1564 -40.988 0
12.3289 -40.1536 0
11.6911 -40.7919 0
10.7788 -41.084 0
10.4821 -41.5171 0
11.1564 -40.988 0
10.6533 -41.5247 0
10.4821 -41.5171 0
10.2183 -41.6792 0
10.6533 -41.5247 0
10.2183 -41.7587 0
11.1564 -40.988 0
10.6533 -41.5247 0
11.6911 -40.7919 0
10.9944 -41.4579 0
10.6533 -41.5247 0
10.2183 -41.7587 0
10.9944 -41.4579 0
10.2183 -41.8279 0
1.887 -20.4872 0
2.18107 -22.6258 0
4.02555 -20.5681 0
4.24641 -22.716 0
2.18107 -22.6258 0
2.50648 -24.6886 0
4.24641 -22.716 0
4.49091 -24.788 0
4.02555 -20.5681 0
4.24641 -22.716 0
6.10641 -20.6242 0
6.25212 -22.7795 0
4.24641 -22.716 0
4.49091 -24.788 0
6.25212 -22.7795 0
6.41449 -24.8586 0
2.50648 -24.6886 0
2.86349 -26.6671 0
4.49091 -24.788 0
4.7591 -26.7758 0
2.86349 -26.6671 0
3.25195 -28.5531 0
4.7591 -26.7758 0
5.0508 -28.671 0
4.49091 -24.788 0
4.7591 -26.7758 0
6.41449 -24.8586 0
6.59306 -26.8531 0
4.7591 -26.7758 0
5.0508 -28.671 0
6.59306 -26.8531 0
6.78742 -28.7548 0
6.10641 -20.6242 0
6.25212 -22.7795 0
8.1475 -20.6549 0
8.21807 -22.8158 0