# vtk DataFile Version 3.0
#This file was generated by the deal.II library on 2020/9/2 at 8:38:58
ASCII
DATASET UNSTRUCTURED_GRID

POINTS 1536 double
5 0 0
5.125 0 0
5 0.125 0
5.125 0.125 0
5.125 0 0
5.25 0 0
5.125 0.125 0
5.25 0.125 0
5 0.125 0
5.125 0.125 0
5 0.25 0
5.125 0.25 0
5.125 0.125 0
5.25 0.125 0
5.125 0.25 0
5.25 0.25 0
5.25 0 0
5.375 0 0
5.25 0.125 0
5.375 0.125 0
5.375 0 0
5.5 0 0
5.375 0.125 0
5.5 0.125 0
5.25 0.125 0
5.375 0.125 0
5.25 0.25 0
5.375 0.25 0
5.375 0.125 0
5.5 0.125 0
5.375 0.25 0
5.5 0.25 0
5 0.25 0
5.125 0.25 0
5 0.375 0
5.125 0.375 0
5.125 0.25 0
5.25 0.25 0
5.125 0.375 0
5.25 0.375 0
5 0.375 0
5.125 0.375 0
5 0.5 0
5.125 0.5 0
5.125 0.375 0
5.25 0.375 0
5.125 0.5 0
5.25 0.5 0
5.25 0.25 0
5.375 0.25 0
5.25 0.375 0
5.375 0.375 0
5.375 0.25 0
5.5 0.25 0
5.375 0.375 0
5.5 0.375 0
5.25 0.375 0
5.375 0.375 0
5.25 0.5 0
5.375 0.5 0
5.375 0.375 0
5.5 0.375 0
5.375 0.5 0
5.5 0.5 0
5.5 0 0
5.625 0 0
5.5 0.125 0
5.625 0.125 0
5.625 0 0
5.75 0 0
5.625 0.125 0
5.75 0.125 0
5.5 0.125 0
5.625 0.125 0
5.5 0.25 0
5.625 0.25 0
5.625 0.125 0
5.75 0.125 0
5.625 0.25 0
5.75 0.25 0
5.75 0 0
5.875 0 0
5.75 0.125 0
5.875 0.125 0
5.875 0 0
6 0 0
5.875 0.125 0
6 0.125 0
5.75 0.125 0
5.875 0.125 0
5.75 0.25 0
5.875 0.25 0
5.875 0.125 0
6 0.125 0
5.875 0.25 0
6 0.25 0
5.5 0.25 0
5.625 0.25 0
5.5 0.375 0
5.625 0.375 0
5.625 0.25 0
5.75 0.25 0
5.625 0.375 0
5.75 0.375 0
5.5 0.375 0
5.625 0.375 0
5.5 0.5 0
5.625 0.5 0
5.625 0.375 0
5.75 0.375 0
5.625 0.5 0
5.75 0.5 0
5.75 0.25 0
5.875 0.25 0
5.75 0.375 0
5.875 0.375 0
5.875 0.25 0
6 0.25 0
5.875 0.375 0
6 0.375 0
5.75 0.375 0
5.875 0.375 0
5.75 0.5 0
5.875 0.5 0
5.875 0.375 0
6 0.375 0
5.875 0.5 0
6 0.5 0
5 0.5 0
5.125 0.5 0
5 0.625 0
5.125 0.625 0
5.125 0.5 0
5.25 0.5 0
5.125 0.625 0
5.25 0.625 0
5 0.625 0
5.125 0.625 0
5 0.75 0
5.125 0.75 0
5.125 0.625 0
5.25 0.625 0
5.125 0.75 0
5.25 0.75 0
5.25 0.5 0
5.375 0.5 0
5.25 0.625 0
5.375 0.625 0
5.375 0.5 0
5.5 0.5 0
5.375 0.625 0
5.5 0.625 0
5.25 0.625 0
5.375 0.625 0
5.25 0.75 0
5.375 0.75 0
5.375 0.625 0
5.5 0.625 0
5.375 0.75 0
5.5 0.75 0
5 0.75 0
5.125 0.75 0
5 0.875 0
5.125 0.875 0
5.125 0.75 0
5.25 0.75 0
5.125 0.875 0
5.25 0.875 0
5 0.875 0
5.125 0.875 0
5 1 0
5.125 1 0
5.125 0.875 0
5.25 0.875 0
5.125 1 0
5.25 1 0
5.25 0.75 0
5.375 0.75 0
5.25 0.875 0
5.375 0.875 0
5.375 0.75 0
5.5 0.75 0
5.375 0.875 0
5.5 0.875 0
5.25 0.875 0
5.375 0.875 0
5.25 1 0
5.375 1 0
5.375 0.875 0
5.5 0.875 0
5.375 1 0
5.5 1 0
5.5 0.5 0
5.625 0.5 0
5.5 0.625 0
5.625 0.625 0
5.625 0.5 0
5.75 0.5 0
5.625 0.625 0
5.75 0.625 0
5.5 0.625 0
5.625 0.625 0
5.5 0.75 0
5.625 0.75 0
5.625 0.625 0
5.75 0.625 0
5.625 0.75 0
5.75 0.75 0
5.75 0.5 0
5.875 0.5 0
5.75 0.625 0
5.875 0.625 0
5.875 0.5 0
6 0.5 0
5.875 0.625 0
6 0.625 0
5.75 0.625 0
5.875 0.625 0
5.75 0.75 0
5.875 0.75 0
5.875 0.625 0
6 0.625 0
5.875 0.75 0
6 0.75 0
5.5 0.75 0
5.625 0.75 0
5.5 0.875 0
5.625 0.875 0
5.625 0.75 0
5.75 0.75 0
5.625 0.875 0
5.75 0.875 0
5.5 0.875 0
5.625 0.875 0
5.5 1 0
5.625 1 0
5.625 0.875 0
5.75 0.875 0
5.625 1 0
5.75 1 0
5.75 0.75 0
5.875 0.75 0
5.75 0.875 0
5.875 0.875 0
5.875 0.75 0
6 0.75 0
5.875 0.875 0
6 0.875 0
5.75 0.875 0
5.875 0.875 0
5.75 1 0
5.875 1 0
5.875 0.875 0
6 0.875 0
5.875 1 0
6 1 0
4 0 0
4.125 0 0
4 0.125 0
4.125 0.125 0
4.125 0 0
4.25 0 0
4.125 0.125 0
4.25 0.125 0
4 0.125 0
4.125 0.125 0
4 0.25 0
4.125 0.25 0
4.125 0.125 0
4.25 0.125 0
4.125 0.25 0
4.25 0.25 0
4.25 0 0
4.375 0 0
4.25 0.125 0
4.375 0.125 0
4.375 0 0
4.5 0 0
4.375 0.125 0
4.5 0.125 0
4.25 0.125 0
4.375 0.125 0
4.25 0.25 0
4.375 0.25 0
4.375 0.125 0
4.5 0.125 0
4.375 0.25 0
4.5 0.25 0
4 0.25 0
4.125 0.25 0
4 0.375 0
4.125 0.375 0
4.125 0.25 0
4.25 0.25 0
4.125 0.375 0
4.25 0.375 0
4 0.375 0
4.125 0.375 0
4 0.5 0
4.125 0.5 0
4.125 0.375 0
4.25 0.375 0
4.125 0.5 0
4.25 0.5 0
4.25 0.25 0
4.375 0.25 0
4.25 0.375 0
4.375 0.375 0
4.375 0.25 0
4.5 0.25 0
4.375 0.375 0
4.5 0.375 0
4.25 0.375 0
4.375 0.375 0
4.25 0.5 0
4.375 0.5 0
4.375 0.375 0
4.5 0.375 0
4.375 0.5 0
4.5 0.5 0
4.5 0 0
4.625 0 0
4.5 0.125 0
4.625 0.125 0
4.625 0 0
4.75 0 0
4.625 0.125 0
4.75 0.125 0
4.5 0.125 0
4.625 0.125 0
4.5 0.25 0
4.625 0.25 0
4.625 0.125 0
4.75 0.125 0
4.625 0.25 0
4.75 0.25 0
4.75 0 0
4.875 0 0
4.75 0.125 0
4.875 0.125 0
4.875 0 0
5 0 0
4.875 0.125 0
5 0.125 0
4.75 0.125 0
4.875 0.125 0
4.75 0.25 0
4.875 0.25 0
4.875 0.125 0
5 0.125 0
4.875 0.25 0
5 0.25 0
4.5 0.25 0
4.625 0.25 0
4.5 0.375 0
4.625 0.375 0
4.625 0.25 0
4.75 0.25 0
4.625 0.375 0
4.75 0.375 0
4.5 0.375 0
4.625 0.375 0
4.5 0.5 0
4.625 0.5 0
4.625 0.375 0
4.75 0.375 0
4.625 0.5 0
4.75 0.5 0
4.75 0.25 0
4.875 0.25 0
4.75 0.375 0
4.875 0.375 0
4.875 0.25 0
5 0.25 0
4.875 0.375 0
5 0.375 0
4.75 0.375 0
4.875 0.375 0
4.75 0.5 0
4.875 0.5 0
4.875 0.375 0
5 0.375 0
4.875 0.5 0
5 0.5 0
4 0.5 0
4.125 0.5 0
4 0.625 0
4.125 0.625 0
4.125 0.5 0
4.25 0.5 0
4.125 0.625 0
4.25 0.625 0
4 0.625 0
4.125 0.625 0
4 0.75 0
4.125 0.75 0
4.125 0.625 0
4.25 0.625 0
4.125 0.75 0
4.25 0.75 0
4.25 0.5 0
4.375 0.5 0
4.25 0.625 0
4.375 0.625 0
4.375 0.5 0
4.5 0.5 0
4.375 0.625 0
4.5 0.625 0
4.25 0.625 0
4.375 0.625 0
4.25 0.75 0
4.375 0.75 0
4.375 0.625 0
4.5 0.625 0
4.375 0.75 0
4.5 0.75 0
4 0.75 0
4.125 0.75 0
4 0.875 0
4.125 0.875 0
4.125 0.75 0
4.25 0.75 0
4.125 0.875 0
4.25 0.875 0
4 0.875 0
4.125 0.875 0
4 1 0
4.125 1 0
4.125 0.875 0
4.25 0.875 0
4.125 1 0
4.25 1 0
4.25 0.75 0
4.375 0.75 0
4.25 0.875 0
4.375 0.875 0
4.375 0.75 0
4.5 0.75 0
4.375 0.875 0
4.5 0.875 0
4.25 0.875 0
4.375 0.875 0
4.25 1 0
4.375 1 0
4.375 0.875 0
4.5 0.875 0
4.375 1 0
4.5 1 0
4.5 0.5 0
4.625 0.5 0
4.5 0.625 0
4.625 0.625 0
4.625 0.5 0
4.75 0.5 0
4.625 0.625 0
4.75 0.625 0
4.5 0.625 0
4.625 0.625 0
4.5 0.75 0
4.625 0.75 0
4.625 0.625 0
4.75 0.625 0
4.625 0.75 0
4.75 0.75 0
4.75 0.5 0
4.875 0.5 0
4.75 0.625 0
4.875 0.625 0
4.875 0.5 0
5 0.5 0
4.875 0.625 0
5 0.625 0
4.75 0.625 0
4.875 0.625 0
4.75 0.75 0
4.875 0.75 0
4.875 0.625 0
5 0.625 0
4.875 0.75 0
5 0.75 0
4.5 0.75 0
4.625 0.75 0
4.5 0.875 0
4.625 0.875 0
4.625 0.75 0
4.75 0.75 0
4.625 0.875 0
4.75 0.875 0
4.5 0.875 0
4.625 0.875 0
4.5 1 0
4.625 1 0
4.625 0.875 0
4.75 0.875 0
4.625 1 0
4.75 1 0
4.75 0.75 0
4.875 0.75 0
4.75 0.875 0
4.875 0.875 0
4.875 0.75 0
5 0.75 0
4.875 0.875 0
5 0.875 0
4.75 0.875 0
4.875 0.875 0
4.75 1 0
4.875 1 0
4.875 0.875 0
5 0.875 0
4.875 1 0
5 1 0
3 0 0
3.125 0 0
3 0.125 0
3.125 0.125 0
3.125 0 0
3.25 0 0
3.125 0.125 0
3.25 0.125 0
3 0.125 0
3.125 0.125 0
3 0.25 0
3.125 0.25 0
3.125 0.125 0
3.25 0.125 0
3.125 0.25 0
3.25 0.25 0
3.25 0 0
3.375 0 0
3.25 0.125 0
3.375 0.125 0
3.375 0 0
3.5 0 0
3.375 0.125 0
3.5 0.125 0
3.25 0.125 0
3.375 0.125 0
3.25 0.25 0
3.375 0.25 0
3.375 0.125 0
3.5 0.125 0
3.375 0.25 0
3.5 0.25 0
3 0.25 0
3.125 0.25 0
3 0.375 0
3.125 0.375 0
3.125 0.25 0
3.25 0.25 0
3.125 0.375 0
3.25 0.375 0
3 0.375 0
3.125 0.375 0
3 0.5 0
3.125 0.5 0
3.125 0.375 0
3.25 0.375 0
3.125 0.5 0
3.25 0.5 0
3.25 0.25 0
3.375 0.25 0
3.25 0.375 0
3.375 0.375 0
3.375 0.25 0
3.5 0.25 0
3.375 0.375 0
3.5 0.375 0
3.25 0.375 0
3.375 0.375 0
3.25 0.5 0
3.375 0.5 0
3.375 0.375 0
3.5 0.375 0
3.375 0.5 0
3.5 0.5 0
3.5 0 0
3.625 0 0
3.5 0.125 0
3.625 0.125 0
3.625 0 0
3.75 0 0
3.625 0.125 0
3.75 0.125 0
3.5 0.125 0
3.625 0.125 0
3.5 0.25 0
3.625 0.25 0
3.625 0.125 0
3.75 0.125 0
3.625 0.25 0
3.75 0.25 0
3.75 0 0
3.875 0 0
3.75 0.125 0
3.875 0.125 0
3.875 0 0
4 0 0
3.875 0.125 0
4 0.125 0
3.75 0.125 0
3.875 0.125 0
3.75 0.25 0
3.875 0.25 0
3.875 0.125 0
4 0.125 0
3.875 0.25 0
4 0.25 0
3.5 0.25 0
3.625 0.25 0
3.5 0.375 0
3.625 0.375 0
3.625 0.25 0
3.75 0.25 0
3.625 0.375 0
3.75 0.375 0
3.5 0.375 0
3.625 0.375 0
3.5 0.5 0
3.625 0.5 0
3.625 0.375 0
3.75 0.375 0
3.625 0.5 0
3.75 0.5 0
3.75 0.25 0
3.875 0.25 0
3.75 0.375 0
3.875 0.375 0
3.875 0.25 0
4 0.25 0
3.875 0.375 0
4 0.375 0
3.75 0.375 0
3.875 0.375 0
3.75 0.5 0
3.875 0.5 0
3.875 0.375 0
4 0.375 0
3.875 0.5 0
4 0.5 0
3 0.5 0
3.125 0.5 0
3 0.625 0
3.125 0.625 0
3.125 0.5 0
3.25 0.5 0
3.125 0.625 0
3.25 0.625 0
3 0.625 0
3.125 0.625 0
3 0.75 0
3.125 0.75 0
3.125 0.625 0
3.25 0.625 0
3.125 0.75 0
3.25 0.75 0
3.25 0.5 0
3.375 0.5 0
3.25 0.625 0
3.375 0.625 0
3.375 0.5 0
3.5 0.5 0
3.375 0.625 0
3.5 0.625 0
3.25 0.625 0
3.375 0.625 0
3.25 0.75 0
3.375 0.75 0
3.375 0.625 0
3.5 0.625 0
3.375 0.75 0
3.5 0.75 0
3 0.75 0
3.125 0.75 0
3 0.875 0
3.125 0.875 0
3.125 0.75 0
3.25 0.75 0
3.125 0.875 0
3.25 0.875 0
3 0.875 0
3.125 0.875 0
3 1 0
3.125 1 0
3.125 0.875 0
3.25 0.875 0
3.125 1 0
3.25 1 0
3.25 0.75 0
3.375 0.75 0
3.25 0.875 0
3.375 0.875 0
3.375 0.75 0
3.5 0.75 0
3.375 0.875 0
3.5 0.875 0
3.25 0.875 0
3.375 0.875 0
3.25 1 0
3.375 1 0
3.375 0.875 0
3.5 0.875 0
3.375 1 0
3.5 1 0
3.5 0.5 0
3.625 0.5 0
3.5 0.625 0
3.625 0.625 0
3.625 0.5 0
3.75 0.5 0
3.625 0.625 0
3.75 0.625 0
3.5 0.625 0
3.625 0.625 0
3.5 0.75 0
3.625 0.75 0
3.625 0.625 0
3.75 0.625 0
3.625 0.75 0
3.75 0.75 0
3.75 0.5 0
3.875 0.5 0
3.75 0.625 0
3.875 0.625 0
3.875 0.5 0
4 0.5 0
3.875 0.625 0
4 0.625 0
3.75 0.625 0
3.875 0.625 0
3.75 0.75 0
3.875 0.75 0
3.875 0.625 0
4 0.625 0
3.875 0.75 0
4 0.75 0
3.5 0.75 0
3.625 0.75 0
3.5 0.875 0
3.625 0.875 0
3.625 0.75 0
3.75 0.75 0
3.625 0.875 0
3.75 0.875 0
3.5 0.875 0
3.625 0.875 0
3.5 1 0
3.625 1 0
3.625 0.875 0
3.75 0.875 0
3.625 1 0
3.75 1 0
3.75 0.75 0
3.875 0.75 0
3.75 0.875 0
3.875 0.875 0
3.875 0.75 0
4 0.75 0
3.875 0.875 0
4 0.875 0
3.75 0.875 0
3.875 0.875 0
3.75 1 0
3.875 1 0
3.875 0.875 0
4 0.875 0
3.875 1 0
4 1 0
2 0 0
2.125 0 0
2 0.125 0
2.125 0.125 0
2.125 0 0
2.25 0 0
2.125 0.125 0
2.25 0.125 0
2 0.125 0
2.125 0.125 0
2 0.25 0
2.125 0.25 0
2.125 0.125 0
2.25 0.125 0
2.125 0.25 0
2.25 0.25 0
2.25 0 0
2.375 0 0
2.25 0.125 0
2.375 0.125 0
2.375 0 0
2.5 0 0
2.375 0.125 0
2.5 0.125 0
2.25 0.125 0
2.375 0.125 0
2.25 0.25 0
2.375 0.25 0
2.375 0.125 0
2.5 0.125 0
2.375 0.25 0
2.5 0.25 0
2 0.25 0
2.125 0.25 0
2 0.375 0
2.125 0.375 0
2.125 0.25 0
2.25 0.25 0
2.125 0.375 0
2.25 0.375 0
2 0.375 0
2.125 0.375 0
2 0.5 0
2.125 0.5 0
2.125 0.375 0
2.25 0.375 0
2.125 0.5 0
2.25 0.5 0
2.25 0.25 0
2.375 0.25 0
2.25 0.375 0
2.375 0.375 0
2.375 0.25 0
[...]
POINT_DATA 1536
VECTORS displacements double
26.7783 -29.8588 0
27.2045 -26.6741 0
23.7058 -29.9885 0
24.0249 -26.791 0
27.2045 -26.6741 0
27.5906 -23.3915 0
24.0249 -26.791 0
24.3112 -23.496 0
23.7058 -29.9885 0
24.0249 -26.791 0
20.7336 -30.078 0
20.9409 -26.8692 0
24.0249 -26.791 0
24.3112 -23.496 0
20.9409 -26.8692 0
21.1211 -23.5617 0
27.5906 -23.3915 0
27.9414 -20.0203 0
24.3112 -23.496 0
24.565 -20.1131 0
27.9414 -20.0203 0
28.2677 -16.5637 0
24.565 -20.1131 0
24.7861 -16.647 0
24.3112 -23.496 0
24.565 -20.1131 0
21.1211 -23.5617 0
21.2704 -20.1647 0
24.565 -20.1131 0
24.7861 -16.647 0
21.2704 -20.1647 0
21.3823 -16.6818 0
20.7336 -30.078 0
20.9409 -26.8692 0
17.828 -30.1264 0
17.9246 -26.9077 0
20.9409 -26.8692 0
21.1211 -23.5617 0
17.9246 -26.9077 0
18.0021 -23.5884 0
17.828 -30.1264 0
17.9246 -26.9077 0
14.9576 -30.1358 0
14.9474 -26.9101 0
17.9246 -26.9077 0
18.0021 -23.5884 0
14.9474 -26.9101 0
14.9298 -23.5823 0
21.1211 -23.5617 0
21.2704 -20.1647 0
18.0021 -23.5884 0
18.0562 -20.1777 0
21.2704 -20.1647 0
21.3823 -16.6818 0
18.0562 -20.1777 0
18.0814 -16.6814 0
18.0021 -23.5884 0
18.0562 -20.1777 0
14.9298 -23.5823 0
14.9021 -20.1635 0
18.0562 -20.1777 0
18.0814 -16.6814 0
14.9021 -20.1635 0
14.8636 -16.6646 0
28.2677 -16.5637 0
28.5899 -13.0145 0
24.7861 -16.647 0
24.9702 -13.0869 0
28.5899 -13.0145 0
28.9504 -9.31218 0
24.9702 -13.0869 0
25.0983 -9.39685 0
24.7861 -16.647 0
24.9702 -13.0869 0
21.3823 -16.6818 0
21.4455 -13.1048 0
24.9702 -13.0869 0
25.0983 -9.39685 0
21.4455 -13.1048 0
21.4443 -9.3922 0
28.9504 -9.31218 0
29.3997 -5.37782 0
25.0983 -9.39685 0
25.0883 -5.35608 0
29.3997 -5.37782 0
29.7779 0 0
25.0883 -5.35608 0
25.1971 -1.07056 0
25.0983 -9.39685 0
25.0883 -5.35608 0
21.4443 -9.3922 0
21.4376 -5.52338 0
25.0883 -5.35608 0
25.1971 -1.07056 0
21.4376 -5.52338 0
21.5462 -1.77978 0
21.3823 -16.6818 0
21.4455 -13.1048 0
18.0814 -16.6814 0
18.0748 -13.0986 0
21.4455 -13.1048 0
21.4443 -9.3922 0
18.0748 -13.0986 0
18.0529 -9.43301 0
18.0814 -16.6814 0
18.0748 -13.0986 0
14.8636 -16.6646 0
14.8205 -13.0997 0
18.0748 -13.0986 0
18.0529 -9.43301 0
14.8205 -13.0997 0
14.7919 -9.49998 0
21.4443 -9.3922 0
21.4376 -5.52338 0
18.0529 -9.43301 0
18.0659 -5.74951 0
21.4376 -5.52338 0
21.5462 -1.77978 0
18.0659 -5.74951 0
18.1515 -2.24159 0
18.0529 -9.43301 0
18.0659 -5.74951 0
14.7919 -9.49998 0
14.8037 -5.93759 0
18.0659 -5.74951 0
18.1515 -2.24159 0
14.8037 -5.93759 0
14.8611 -2.53789 0
14.9576 -30.1358 0
14.9474 -26.9101 0
12.0911 -30.1091 0
11.9785 -26.8809 0
14.9474 -26.9101 0
14.9298 -23.5823 0
11.9785 -26.8809 0
11.8732 -23.5504 0
12.0911 -30.1091 0
11.9785 -26.8809 0
9.19566 -30.0487 0
8.98389 -26.8237 0
11.9785 -26.8809 0
11.8732 -23.5504 0
8.98389 -26.8237 0
8.79574 -23.4971 0
14.9298 -23.5823 0
14.9021 -20.1635 0
11.8732 -23.5504 0
11.775 -20.1313 0
14.9021 -20.1635 0
14.8636 -16.6646 0
11.775 -20.1313 0
11.6864 -16.6408 0
11.8732 -23.5504 0
11.775 -20.1313 0
8.79574 -23.4971 0
8.63319 -20.0849 0
11.775 -20.1313 0
11.6864 -16.6408 0
8.63319 -20.0849 0
8.49969 -16.6089 0
9.19566 -30.0487 0
8.98389 -26.8237 0
6.233 -29.9549 0
5.9226 -26.7393 0
8.98389 -26.8237 0
8.79574 -23.4971 0
5.9226 -26.7393 0
5.65274 -23.4233 0
6.233 -29.9549 0
5.9226 -26.7393 0
3.157 -29.8265 0
2.74471 -26.6261 0
5.9226 -26.7393 0
5.65274 -23.4233 0
2.74471 -26.6261 0
2.3895 -23.3271 0
8.79574 -23.4971 0
8.63319 -20.0849 0
5.65274 -23.4233 0
5.42745 -20.0243 0
8.63319 -20.0849 0
8.49969 -16.6089 0
5.42745 -20.0243 0
5.25086 -16.5656 0
5.65274 -23.4233 0
5.42745 -20.0243 0
2.3895 -23.3271 0
2.09888 -19.9475 0
5.42745 -20.0243 0
5.25086 -16.5656 0
2.09888 -19.9475 0
1.88055 -16.5108 0
14.8636 -16.6646 0
14.8205 -13.0997 0
11.6864 -16.6408 0
11.6152 -13.1037 0
14.8205 -13.0997 0
14.7919 -9.49998 0
11.6152 -13.1037 0
11.5742 -9.55916 0
11.6864 -16.6408 0
11.6152 -13.1037 0
8.49969 -16.6089 0
8.40047 -13.0988 0
11.6152 -13.1037 0
11.5742 -9.55916 0
8.40047 -13.0988 0
8.34125 -9.59426 0
14.7919 -9.49998 0
14.8037 -5.93759 0
11.5742 -9.55916 0
11.5733 -6.06728 0
14.8037 -5.93759 0
14.8611 -2.53789 0
11.5733 -6.06728 0
11.6034 -2.70899 0
11.5742 -9.55916 0
11.5733 -6.06728 0
8.34125 -9.59426 0
8.32317 -6.14155 0
11.5733 -6.06728 0
11.6034 -2.70899 0
8.32317 -6.14155 0
8.33105 -2.786 0
8.49969 -16.6089 0
8.40047 -13.0988 0
5.25086 -16.5656 0
5.12563 -13.0786 0
8.40047 -13.0988 0
8.34125 -9.59426 0
5.12563 -13.0786 0
5.05069 -9.60176 0
5.25086 -16.5656 0
5.12563 -13.0786 0
1.88055 -16.5108 0
1.73903 -13.0472 0
5.12563 -13.0786 0
5.05069 -9.60176 0
1.73903 -13.0472 0
1.66977 -9.59231 0
8.34125 -9.59426 0
8.32317 -6.14155 0
5.05069 -9.60176 0
5.01901 -6.17203 0
8.32317 -6.14155 0
8.33105 -2.786 0
5.01901 -6.17203 0
5.01349 -2.80438 0
5.05069 -9.60176 0
5.01901 -6.17203 0
1.66977 -9.59231 0
1.65242 -6.1773 0
5.01901 -6.17203 0
5.01349 -2.80438 0
1.65242 -6.1773 0
1.65265 -2.8042 0
21.9211 -50.5048 0
22.6584 -48.4889 0
20.0611 -50.7242 0
20.6129 -48.6985 0
22.6584 -48.4889 0
23.3607 -46.2926 0
20.6129 -48.6985 0
21.1393 -46.492 0
20.0611 -50.7242 0
20.6129 -48.6985 0
18.3127 -50.8788 0
18.678 -48.8465 0
20.6129 -48.6985 0
21.1393 -46.492 0
18.678 -48.8465 0
19.0275 -46.6332 0
23.3607 -46.2926 0
24.0272 -43.9251 0
21.1393 -46.492 0
21.6393 -44.114 0
24.0272 -43.9251 0
24.6567 -41.3958 0
21.6393 -44.114 0
22.112 -41.5737 0
21.1393 -46.492 0
21.6393 -44.114 0
19.0275 -46.6332 0
19.3602 -44.248 0
21.6393 -44.114 0
22.112 -41.5737 0
19.3602 -44.248 0
19.6751 -41.7001 0
18.3127 -50.8788 0
18.678 -48.8465 0
16.6329 -50.9683 0
16.8118 -48.9326 0
18.678 -48.8465 0
19.0275 -46.6332 0
16.8118 -48.9326 0
16.9841 -46.716 0
16.6329 -50.9683 0
16.8118 -48.9326 0
14.9821 -50.9938 0
14.9758 -48.9579 0
16.8118 -48.9326 0
16.9841 -46.716 0
14.9758 -48.9579 0
14.9718 -46.741 0
19.0275 -46.6332 0
19.3602 -44.248 0
16.9841 -46.716 0
17.149 -44.327 0
19.3602 -44.248 0
19.6751 -41.7001 0
17.149 -44.327 0
17.3057 -41.7746 0
16.9841 -46.716 0
17.149 -44.327 0
14.9718 -46.741 0
14.9694 -44.3514 0
17.149 -44.327 0
17.3057 -41.7746 0
14.9694 -44.3514 0
14.968 -41.7979 0
24.6567 -41.3958 0
25.248 -38.714 0
22.112 -41.5737 0
22.5561 -38.8806 0
25.248 -38.714 0
25.7995 -35.8901 0
22.5561 -38.8806 0
22.9705 -36.0448 0
22.112 -41.5737 0
22.5561 -38.8806 0
19.6751 -41.7001 0
19.9711 -38.9988 0
22.5561 -38.8806 0
22.9705 -36.0448 0
19.9711 -38.9988 0
20.2471 -36.1542 0
25.7995 -35.8901 0
26.3099 -32.9346 0
22.9705 -36.0448 0
23.3541 -33.077 0
26.3099 -32.9346 0
26.7783 -29.8588 0
23.3541 -33.077 0
23.7058 -29.9885 0
22.9705 -36.0448 0
23.3541 -33.077 0
20.2471 -36.1542 0
20.5017 -33.1768 0
23.3541 -33.077 0
23.7058 -29.9885 0
20.5017 -33.1768 0
20.7336 -30.078 0
19.6751 -41.7001 0
19.9711 -38.9988 0
17.3057 -41.7746 0
17.4531 -39.0683 0
19.9711 -38.9988 0
20.2471 -36.1542 0
17.4531 -39.0683 0
17.5903 -36.2177 0
17.3057 -41.7746 0
17.4531 -39.0683 0
14.968 -41.7979 0
14.9671 -39.0897 0
17.4531 -39.0683 0
17.5903 -36.2177 0
14.9671 -39.0897 0
14.9657 -36.2365 0
20.2471 -36.1542 0
20.5017 -33.1768 0
17.5903 -36.2177 0
17.7158 -33.2335 0
20.5017 -33.1768 0
20.7336 -30.078 0
17.7158 -33.2335 0
17.828 -30.1264 0
17.5903 -36.2177 0
17.7158 -33.2335 0
14.9657 -36.2365 0
14.963 -33.2483 0
17.7158 -33.2335 0
17.828 -30.1264 0
14.963 -33.2483 0
14.9576 -30.1358 0
14.9821 -50.9938 0
14.9758 -48.9579 0
13.3251 -50.9568 0
13.1359 -48.9235 0
14.9758 -48.9579 0
14.9718 -46.741 0
13.1359 -48.9235 0
12.957 -46.7094 0
13.3251 -50.9568 0
13.1359 -48.9235 0
11.6295 -50.8588 0
11.2598 -48.8308 0
13.1359 -48.9235 0
12.957 -46.7094 0
11.2598 -48.8308 0
10.9078 -46.6219 0
14.9718 -46.741 0
14.9694 -44.3514 0
12.957 -46.7094 0
12.7883 -44.3223 0
14.9694 -44.3514 0
14.968 -41.7979 0
12.7883 -44.3223 0
12.6296 -41.7708 0
12.957 -46.7094 0
12.7883 -44.3223 0
10.9078 -46.6219 0
10.5738 -44.24 0
12.7883 -44.3223 0
12.6296 -41.7708 0
10.5738 -44.24 0
10.2583 -41.6936 0
11.6295 -50.8588 0
11.2598 -48.8308 0
9.86378 -50.7011 0
9.31498 -48.6803 0
11.2598 -48.8308 0
10.9078 -46.6219 0
9.31498 -48.6803 0
8.79052 -46.4789 0
9.86378 -50.7011 0
9.31498 -48.6803 0
7.99792 -50.4832 0
7.26803 -48.4715 0
9.31498 -48.6803 0
8.79052 -46.4789 0
7.26803 -48.4715 0
6.56937 -46.2798 0
10.9078 -46.6219 0
10.5738 -44.24 0
8.79052 -46.4789 0
8.2916 -44.1047 0
10.5738 -44.24 0
10.2583 -41.6936 0
8.2916 -44.1047 0
7.81956 -41.5661 0
8.79052 -46.4789 0
8.2916 -44.1047 0
6.56937 -46.2798 0
5.9041 -43.9157 0
8.2916 -44.1047 0
7.81956 -41.5661 0
5.9041 -43.9157 0
5.27428 -41.3879 0
14.968 -41.7979 0
14.9671 -39.0897 0
12.6296 -41.7708 0
12.4807 -39.064 0
14.9671 -39.0897 0
14.9657 -36.2365 0
12.4807 -39.064 0
12.3415 -36.2115 0
12.6296 -41.7708 0
12.4807 -39.064 0
10.2583 -41.6936 0
9.96197 -38.9916 0
12.4807 -39.064 0
12.3415 -36.2115 0
9.96197 -38.9916 0
9.68557 -36.1435 0
14.9657 -36.2365 0
14.963 -33.2483 0
12.3415 -36.2115 0
12.2118 -33.223 0
14.963 -33.2483 0
14.9576 -30.1358 0
12.2118 -33.223 0
12.0911 -30.1091 0
12.3415 -36.2115 0
12.2118 -33.223 0
9.68557 -36.1435 0
9.42986 -33.159 0
12.2118 -33.223 0
12.0911 -30.1091 0
9.42986 -33.159 0
9.19566 -30.0487 0
10.2583 -41.6936 0
9.96197 -38.9916 0
7.81956 -41.5661 0
7.37587 -38.8722 0
9.96197 -38.9916 0
9.68557 -36.1435 0
7.37587 -38.8722 0
6.96219 -36.0324 0
7.81956 -41.5661 0
7.37587 -38.8722 0
5.27428 -41.3879 0
4.68206 -38.7053 0
7.37587 -38.8722 0
6.96219 -36.0324 0
4.68206 -38.7053 0
4.12978 -35.8774 0
9.68557 -36.1435 0
9.42986 -33.159 0
6.96219 -36.0324 0
6.58047 -33.0564 0
9.42986 -33.159 0
9.19566 -30.0487 0
6.58047 -33.0564 0
6.233 -29.9549 0
6.96219 -36.0324 0
6.58047 -33.0564 0
4.12978 -35.8774 0
3.62025 -32.9143 0
6.58047 -33.0564 0
6.233 -29.9549 0
3.62025 -32.9143 0
3.157 -29.8265 0
14.8889 -58.755 0
15.8485 -58.6135 0
14.8889 -59.0352 0
15.586 -58.8921 0
15.8485 -58.6135 0
16.7976 -58.1927 0
15.586 -58.8921 0
16.2767 -58.4663 0
14.8889 -59.0352 0
15.586 -58.8921 0
14.8889 -59.25 0
15.3579 -59.104 0
15.586 -58.8921 0
16.2767 -58.4663 0
15.3579 -59.104 0
15.8201 -58.6709 0
16.7976 -58.1927 0
17.7272 -57.5022 0
16.2767 -58.4663 0
16.9556 -57.7686 0
17.7272 -57.5022 0
18.6305 -56.5557 0
16.9556 -57.7686 0
17.6185 -56.8135 0
16.2767 -58.4663 0
16.9556 -57.7686 0
15.8201 -58.6709 0
16.2706 -57.9634 0
16.9556 -57.7686 0
17.6185 -56.8135 0
16.2706 -57.9634 0
16.7073 -56.9983 0
14.8889 -59.25 0
15.3579 -59.104 0
14.8889 -59.4236 0
15.1503 -59.2716 0
15.3579 -59.104 0
15.8201 -58.6709 0
15.1503 -59.2716 0
15.4011 -58.8233 0
14.8889 -59.4236 0
15.1503 -59.2716 0
14.8889 -59.5715 0
14.953 -59.4077 0
15.1503 -59.2716 0
15.4011 -58.8233 0
14.953 -59.4077 0
14.9993 -58.9309 0
15.8201 -58.6709 0
16.2706 -57.9634 0
15.4011 -58.8233 0
15.6358 -58.0976 0
16.2706 -57.9634 0
16.7073 -56.9983 0
15.6358 -58.0976 0
15.8544 -57.1164 0
15.4011 -58.8233 0
15.6358 -58.0976 0
14.9993 -58.9309 0
15.021 -58.1741 0
15.6358 -58.0976 0
15.8544 -57.1164 0
15.021 -58.1741 0
15.0231 -57.1688 0
18.6305 -56.5557 0
19.5033 -55.3686 0
17.6185 -56.8135 0
18.2622 -55.6171 0
19.5033 -55.3686 0
20.3432 -53.9557 0
18.2622 -55.6171 0
18.8847 -54.1946 0
17.6185 -56.8135 0
18.2622 -55.6171 0
16.7073 -56.9983 0
17.1297 -55.7929 0
18.2622 -55.6171 0
18.8847 -54.1946 0
17.1297 -55.7929 0
17.5381 -54.3627 0
20.3432 -53.9557 0
21.1493 -52.3305 0
18.8847 -54.1946 0
19.4847 -52.5597 0
21.1493 -52.3305 0
21.9211 -50.5048 0
19.4847 -52.5597 0
20.0611 -50.7242 0
18.8847 -54.1946 0
19.4847 -52.5597 0
17.5381 -54.3627 0
17.9325 -52.7209 0
19.4847 -52.5597 0
20.0611 -50.7242 0
17.9325 -52.7209 0
18.3127 -50.8788 0
16.7073 -56.9983 0
17.1297 -55.7929 0
15.8544 -57.1164 0
16.0605 -55.8991 0
17.1297 -55.7929 0
17.5381 -54.3627 0
16.0605 -55.8991 0
16.2577 -54.4611 0
15.8544 -57.1164 0
16.0605 -55.8991 0
15.0231 -57.1688 0
15.0144 -55.9366 0
16.0605 -55.8991 0
16.2577 -54.4611 0
15.0144 -55.9366 0
15.0023 -54.4908 0
17.5381 -54.3627 0
17.9325 -52.7209 0
16.2577 -54.4611 0
16.4482 -52.8141 0
17.9325 -52.7209 0
18.3127 -50.8788 0
16.4482 -52.8141 0
16.6329 -50.9683 0
16.2577 -54.4611 0
16.4482 -52.8141 0
15.0023 -54.4908 0
14.991 -52.8406 0
16.4482 -52.8141 0
16.6329 -50.9683 0
14.991 -52.8406 0
14.9821 -50.9938 0
14.8889 -59.5715 0
14.953 -59.4077 0
14.8889 -59.7035 0
14.7571 -59.5169 0
14.953 -59.4077 0
14.9993 -58.9309 0
14.7571 -59.5169 0
14.595 -58.9904 0
14.8889 -59.7035 0
14.7571 -59.5169 0
14.8889 -59.8261 0
14.5498 -59.596 0
14.7571 -59.5169 0
14.595 -58.9904 0
14.5498 -59.596 0
14.1648 -58.9846 0
14.9993 -58.9309 0
15.021 -58.1741 0
14.595 -58.9904 0
14.3977 -58.1865 0
15.021 -58.1741 0
15.0231 -57.1688 0
14.3977 -58.1865 0
14.1785 -57.1506 0
14.595 -58.9904 0
14.3977 -58.1865 0
14.1648 -58.9846 0
13.7298 -58.1169 0
14.3977 -58.1865 0
14.1785 -57.1506 0
13.7298 -58.1169 0
13.2809 -57.0532 0
14.8889 -59.8261 0
14.5498 -59.596 0
14.8889 -59.9556 0
14.3209 -59.6241 0
14.5498 -59.596 0
14.1648 -58.9846 0
14.3209 -59.6241 0
13.6515 -58.8649 0
14.8889 -59.9556 0
14.3209 -59.6241 0
14.8889 -60.0237 0
13.8437 -59.5249 0
14.3209 -59.6241 0
13.6515 -58.8649 0
13.8437 -59.5249 0
12.8993 -58.6011 0
14.1648 -58.9846 0
13.7298 -58.1169 0
13.6515 -58.8649 0
12.9535 -57.9454 0
13.7298 -58.1169 0
13.2809 -57.0532 0
12.9535 -57.9454 0
12.2873 -56.8757 0
13.6515 -58.8649 0
12.9535 -57.9454 0
12.8993 -58.6011 0
12.028 -57.6938 0
12.9535 -57.9454 0
12.2873 -56.8757 0
12.028 -57.6938 0
11.18 -56.6273 0
15.0231 -57.1688 0
15.0144 -55.9366 0
14.1785 -57.1506 0
13.9541 -55.9034 0
15.0144 -55.9366 0
15.0023 -54.4908 0
13.9541 -55.9034 0
13.7349 -54.4524 0
14.1785 -57.1506 0
13.9541 -55.9034 0
13.2809 -57.0532 0
12.843 -55.798 0
13.9541 -55.9034 0
13.7349 -54.4524 0
12.843 -55.798 0
12.4212 -54.3466 0
15.0023 -54.4908 0
14.991 -52.8406 0
13.7349 -54.4524 0
13.5248 -52.8018 0
14.991 -52.8406 0
14.9821 -50.9938 0
13.5248 -52.8018 0
13.3251 -50.9568 0
13.7349 -54.4524 0
13.5248 -52.8018 0
12.4212 -54.3466 0
12.0166 -52.6992 0
13.5248 -52.8018 0
13.3251 -50.9568 0
12.0166 -52.6992 0
11.6295 -50.8588 0
13.2809 -57.0532 0
12.843 -55.798 0
12.2873 -56.8757 0
11.6473 -55.622 0
12.843 -55.798 0
12.4212 -54.3466 0
11.6473 -55.622 0
11.0305 -54.1757 0
12.2873 -56.8757 0
11.6473 -55.622 0
11.18 -56.6273 0
10.3505 -55.3806 0
11.6473 -55.622 0
11.0305 -54.1757 0
10.3505 -55.3806 0
9.54185 -53.9415 0
12.4212 -54.3466 0
12.0166 -52.6992 0
11.0305 -54.1757 0
10.4359 -52.5346 0
12.0166 -52.6992 0
11.6295 -50.8588 0
10.4359 -52.5346 0
9.86378 -50.7011 0
11.0305 -54.1757 0
10.4359 -52.5346 0
9.54185 -53.9415 0
8.75671 -52.3082 0
10.4359 -52.5346 0
9.86378 -50.7011 0
8.75671 -52.3082 0
7.99792 -50.4832 0
7.85675 -50.5048 0
8.62858 -52.3305 0
9.71681 -50.7242 0
10.2932 -52.5597 0
8.62858 -52.3305 0
9.43466 -53.9557 0
10.2932 -52.5597 0
10.8931 -54.1946 0
9.71681 -50.7242 0
10.2932 -52.5597 0
11.4651 -50.8788 0
11.8454 -52.7209 0
10.2932 -52.5597 0
10.8931 -54.1946 0
11.8454 -52.7209 0
12.2398 -54.3627 0
9.43466 -53.9557 0
10.2746 -55.3686 0
10.8931 -54.1946 0
11.5157 -55.6171 0
10.2746 -55.3686 0
11.1474 -56.5557 0
11.5157 -55.6171 0
12.1594 -56.8135 0
10.8931 -54.1946 0
11.5157 -55.6171 0
12.2398 -54.3627 0
12.6482 -55.7929 0
11.5157 -55.6171 0
12.1594 -56.8135 0
12.6482 -55.7929 0
13.0706 -56.9983 0
11.4651 -50.8788 0
11.8454 -52.7209 0
13.145 -50.9683 0
13.3297 -52.8141 0
11.8454 -52.7209 0
12.2398 -54.3627 0
13.3297 -52.8141 0
13.5202 -54.4611 0
13.145 -50.9683 0
13.3297 -52.8141 0
14.7958 -50.9938 0
14.7869 -52.8406 0
13.3297 -52.8141 0
13.5202 -54.4611 0
14.7869 -52.8406 0
14.7756 -54.4908 0
12.2398 -54.3627 0
12.6482 -55.7929 0
13.5202 -54.4611 0
13.7173 -55.8991 0
12.6482 -55.7929 0
13.0706 -56.9983 0
13.7173 -55.8991 0
13.9234 -57.1164 0
13.5202 -54.4611 0
13.7173 -55.8991 0
14.7756 -54.4908 0
14.7635 -55.9366 0
13.7173 -55.8991 0
13.9234 -57.1164 0
14.7635 -55.9366 0
14.7548 -57.1688 0
11.1474 -56.5557 0
12.0507 -57.5022 0
12.1594 -56.8135 0
12.8222 -57.7686 0
12.0507 -57.5022 0
12.9803 -58.1927 0
12.8222 -57.7686 0
13.5012 -58.4663 0
12.1594 -56.8135 0
12.8222 -57.7686 0
13.0706 -56.9983 0
13.5072 -57.9634 0
12.8222 -57.7686 0
13.5012 -58.4663 0
13.5072 -57.9634 0
13.9578 -58.6709 0
12.9803 -58.1927 0
13.9294 -58.6135 0
13.5012 -58.4663 0
14.1919 -58.8921 0
13.9294 -58.6135 0
14.8889 -58.755 0
14.1919 -58.8921 0
14.8889 -59.0352 0
13.5012 -58.4663 0
14.1919 -58.8921 0
13.9578 -58.6709 0
14.4199 -59.104 0
14.1919 -58.8921 0
14.8889 -59.0352 0
14.4199 -59.104 0
14.8889 -59.25 0
13.0706 -56.9983 0
13.5072 -57.9634 0
13.9234 -57.1164 0
14.1421 -58.0976 0
13.5072 -57.9634 0
13.9578 -58.6709 0
14.1421 -58.0976 0
14.3767 -58.8233 0
13.9234 -57.1164 0
14.1421 -58.0976 0
14.7548 -57.1688 0
14.7568 -58.1741 0
14.1421 -58.0976 0
14.3767 -58.8233 0
14.7568 -58.1741 0
14.7786 -58.9309 0
13.9578 -58.6709 0
14.4199 -59.104 0
14.3767 -58.8233 0
14.6276 -59.2716 0
14.4199 -59.104 0
14.8889 -59.25 0
14.6276 -59.2716 0
14.8889 -59.4236 0
14.3767 -58.8233 0
14.6276 -59.2716 0
14.7786 -58.9309 0
14.8249 -59.4077 0
14.6276 -59.2716 0
14.8889 -59.4236 0
14.8249 -59.4077 0
14.8889 -59.5715 0
14.7958 -50.9938 0
14.7869 -52.8406 0
16.4528 -50.9568 0
16.2531 -52.8018 0
14.7869 -52.8406 0
14.7756 -54.4908 0
16.2531 -52.8018 0
16.043 -54.4524 0
16.4528 -50.9568 0
16.2531 -52.8018 0
18.1484 -50.8588 0
17.7612 -52.6992 0
16.2531 -52.8018 0
16.043 -54.4524 0
17.7612 -52.6992 0
17.3567 -54.3466 0
14.7756 -54.4908 0
14.7635 -55.9366 0
16.043 -54.4524 0
15.8238 -55.9034 0
14.7635 -55.9366 0
14.7548 -57.1688 0
15.8238 -55.9034 0
15.5994 -57.1506 0
16.043 -54.4524 0
15.8238 -55.9034 0
17.3567 -54.3466 0
16.9349 -55.798 0
15.8238 -55.9034 0
15.5994 -57.1506 0
16.9349 -55.798 0
16.497 -57.0532 0
18.1484 -50.8588 0
17.7612 -52.6992 0
19.9141 -50.7011 0
19.342 -52.5346 0
17.7612 -52.6992 0
17.3567 -54.3466 0
19.342 -52.5346 0
18.7474 -54.1757 0
19.9141 -50.7011 0
19.342 -52.5346 0
21.78 -50.4832 0
21.0212 -52.3082 0
19.342 -52.5346 0
18.7474 -54.1757 0
21.0212 -52.3082 0
20.236 -53.9415 0
17.3567 -54.3466 0
16.9349 -55.798 0
18.7474 -54.1757 0
18.1306 -55.622 0
16.9349 -55.798 0
16.497 -57.0532 0
18.1306 -55.622 0
17.4906 -56.8757 0
18.7474 -54.1757 0
18.1306 -55.622 0
20.236 -53.9415 0
19.4273 -55.3806 0
18.1306 -55.622 0
17.4906 -56.8757 0
19.4273 -55.3806 0
18.5979 -56.6273 0
14.7548 -57.1688 0
14.7568 -58.1741 0
15.5994 -57.1506 0
15.3802 -58.1865 0
14.7568 -58.1741 0
14.7786 -58.9309 0
15.3802 -58.1865 0
15.1829 -58.9904 0
15.5994 -57.1506 0
15.3802 -58.1865 0
16.497 -57.0532 0
16.0481 -58.1169 0
15.3802 -58.1865 0
15.1829 -58.9904 0
16.0481 -58.1169 0
15.6131 -58.9846 0
14.7786 -58.9309 0
14.8249 -59.4077 0
15.1829 -58.9904 0
15.0207 -59.5169 0
14.8249 -59.4077 0
14.8889 -59.5715 0
15.0207 -59.5169 0
14.8889 -59.7035 0
15.1829 -58.9904 0
15.0207 -59.5169 0
15.6131 -58.9846 0
15.2281 -59.596 0
15.0207 -59.5169 0
14.8889 -59.7035 0
15.2281 -59.596 0
14.8889 -59.8261 0
16.497 -57.0532 0
16.0481 -58.1169 0
17.4906 -56.8757 0
16.8244 -57.9454 0
16.0481 -58.1169 0
15.6131 -58.9846 0
16.8244 -57.9454 0
16.1264 -58.8649 0
17.4906 -56.8757 0
16.8244 -57.9454 0
18.5979 -56.6273 0
17.7499 -57.6938 0
16.8244 -57.9454 0
16.1264 -58.8649 0
17.7499 -57.6938 0
16.8786 -58.6011 0
15.6131 -58.9846 0
15.2281 -59.596 0
16.1264 -58.8649 0
15.457 -59.6241 0
15.2281 -59.596 0
14.8889 -59.8261 0
15.457 -59.6241 0
14.8889 -59.9556 0
16.1264 -58.8649 0
15.457 -59.6241 0
16.8786 -58.6011 0
15.9342 -59.5249 0
15.457 -59.6241 0
14.8889 -59.9556 0
15.9342 -59.5249 0
14.8889 -60.0237 0
2.99962 -29.8588 0
3.46798 -32.9346 0
6.07211 -29.9885 0
6.42381 -33.077 0
3.46798 -32.9346 0
3.9784 -35.8901 0
6.42381 -33.077 0
6.80737 -36.0448 0
6.07211 -29.9885 0
6.42381 -33.077 0
9.04429 -30.078 0
9.27617 -33.1768 0
6.42381 -33.077 0
6.80737 -36.0448 0
9.27617 -33.1768 0
9.53083 -36.1542 0
3.9784 -35.8901 0
4.52993 -38.714 0
6.80737 -36.0448 0
7.2218 -38.8806 0
4.52993 -38.714 0
5.12119 -41.3958 0
7.2218 -38.8806 0
7.66592 -41.5737 0
6.80737 -36.0448 0
7.2218 -38.8806 0
9.53083 -36.1542 0
9.80679 -38.9988 0
7.2218 -38.8806 0
7.66592 -41.5737 0
9.80679 -38.9988 0
10.1028 -41.7001 0
9.04429 -30.078 0
9.27617 -33.1768 0
11.9499 -30.1264 0
12.0621 -33.2335 0
9.27617 -33.1768 0
9.53083 -36.1542 0
12.0621 -33.2335 0