# vtk DataFile Version 3.0
#This file was generated by the deal.II library on 2020/9/2 at 8:39:57
ASCII
DATASET UNSTRUCTURED_GRID

POINTS 1536 double
5 0 0
5.125 0 0
5 0.125 0
5.125 0.125 0
5.125 0 0
5.25 0 0
5.125 0.125 0
5.25 0.125 0
5 0.125 0
5.125 0.125 0
5 0.25 0
5.125 0.25 0
5.125 0.125 0
5.25 0.125 0
5.125 0.25 0
5.25 0.25 0
5.25 0 0
5.375 0 0
5.25 0.125 0
5.375 0.125 0
5.375 0 0
5.5 0 0
5.375 0.125 0
5.5 0.125 0
5.25 0.125 0
5.375 0.125 0
5.25 0.25 0
5.375 0.25 0
5.375 0.125 0
5.5 0.125 0
5.375 0.25 0
5.5 0.25 0
5 0.25 0
5.125 0.25 0
5 0.375 0
5.125 0.375 0
5.125 0.25 0
5.25 0.25 0
5.125 0.375 0
5.25 0.375 0
5 0.375 0
5.125 0.375 0
5 0.5 0
5.125 0.5 0
5.125 0.375 0
5.25 0.375 0
5.125 0.5 0
5.25 0.5 0
5.25 0.25 0
5.375 0.25 0
5.25 0.375 0
5.375 0.375 0
5.375 0.25 0
5.5 0.25 0
5.375 0.375 0
5.5 0.375 0
5.25 0.375 0
5.375 0.375 0
5.25 0.5 0
5.375 0.5 0
5.375 0.375 0
5.5 0.375 0
5.375 0.5 0
5.5 0.5 0
5.5 0 0
5.625 0 0
5.5 0.125 0
5.625 0.125 0
5.625 0 0
5.75 0 0
5.625 0.125 0
5.75 0.125 0
5.5 0.125 0
5.625 0.125 0
5.5 0.25 0
5.625 0.25 0
5.625 0.125 0
5.75 0.125 0
5.625 0.25 0
5.75 0.25 0
5.75 0 0
5.875 0 0
5.75 0.125 0
5.875 0.125 0
5.875 0 0
6 0 0
5.875 0.125 0
6 0.125 0
5.75 0.125 0
5.875 0.125 0
5.75 0.25 0
5.875 0.25 0
5.875 0.125 0
6 0.125 0
5.875 0.25 0
6 0.25 0
5.5 0.25 0
5.625 0.25 0
5.5 0.375 0
5.625 0.375 0
5.625 0.25 0
5.75 0.25 0
5.625 0.375 0
5.75 0.375 0
5.5 0.375 0
5.625 0.375 0
5.5 0.5 0
5.625 0.5 0
5.625 0.375 0
5.75 0.375 0
5.625 0.5 0
5.75 0.5 0
5.75 0.25 0
5.875 0.25 0
5.75 0.375 0
5.875 0.375 0
5.875 0.25 0
6 0.25 0
5.875 0.375 0
6 0.375 0
5.75 0.375 0
5.875 0.375 0
5.75 0.5 0
5.875 0.5 0
5.875 0.375 0
6 0.375 0
5.875 0.5 0
6 0.5 0
5 0.5 0
5.125 0.5 0
5 0.625 0
5.125 0.625 0
5.125 0.5 0
5.25 0.5 0
5.125 0.625 0
5.25 0.625 0
5 0.625 0
5.125 0.625 0
5 0.75 0
5.125 0.75 0
5.125 0.625 0
5.25 0.625 0
5.125 0.75 0
5.25 0.75 0
5.25 0.5 0
5.375 0.5 0
5.25 0.625 0
5.375 0.625 0
5.375 0.5 0
5.5 0.5 0
5.375 0.625 0
5.5 0.625 0
5.25 0.625 0
5.375 0.625 0
5.25 0.75 0
5.375 0.75 0
5.375 0.625 0
5.5 0.625 0
5.375 0.75 0
5.5 0.75 0
5 0.75 0
5.125 0.75 0
5 0.875 0
5.125 0.875 0
5.125 0.75 0
5.25 0.75 0
5.125 0.875 0
5.25 0.875 0
5 0.875 0
5.125 0.875 0
5 1 0
5.125 1 0
5.125 0.875 0
5.25 0.875 0
5.125 1 0
5.25 1 0
5.25 0.75 0
5.375 0.75 0
5.25 0.875 0
5.375 0.875 0
5.375 0.75 0
5.5 0.75 0
5.375 0.875 0
5.5 0.875 0
5.25 0.875 0
5.375 0.875 0
5.25 1 0
5.375 1 0
5.375 0.875 0
5.5 0.875 0
5.375 1 0
5.5 1 0
5.5 0.5 0
5.625 0.5 0
5.5 0.625 0
5.625 0.625 0
5.625 0.5 0
5.75 0.5 0
5.625 0.625 0
5.75 0.625 0
5.5 0.625 0
5.625 0.625 0
5.5 0.75 0
5.625 0.75 0
5.625 0.625 0
5.75 0.625 0
5.625 0.75 0
5.75 0.75 0
5.75 0.5 0
5.875 0.5 0
5.75 0.625 0
5.875 0.625 0
5.875 0.5 0
6 0.5 0
5.875 0.625 0
6 0.625 0
5.75 0.625 0
5.875 0.625 0
5.75 0.75 0
5.875 0.75 0
5.875 0.625 0
6 0.625 0
5.875 0.75 0
6 0.75 0
5.5 0.75 0
5.625 0.75 0
5.5 0.875 0
5.625 0.875 0
5.625 0.75 0
5.75 0.75 0
5.625 0.875 0
5.75 0.875 0
5.5 0.875 0
5.625 0.875 0
5.5 1 0
5.625 1 0
5.625 0.875 0
5.75 0.875 0
5.625 1 0
5.75 1 0
5.75 0.75 0
5.875 0.75 0
5.75 0.875 0
5.875 0.875 0
5.875 0.75 0
6 0.75 0
5.875 0.875 0
6 0.875 0
5.75 0.875 0
5.875 0.875 0
5.75 1 0
5.875 1 0
5.875 0.875 0
6 0.875 0
5.875 1 0
6 1 0
4 0 0
4.125 0 0
4 0.125 0
4.125 0.125 0
4.125 0 0
4.25 0 0
4.125 0.125 0
4.25 0.125 0
4 0.125 0
4.125 0.125 0
4 0.25 0
4.125 0.25 0
4.125 0.125 0
4.25 0.125 0
4.125 0.25 0
4.25 0.25 0
4.25 0 0
4.375 0 0
4.25 0.125 0
4.375 0.125 0
4.375 0 0
4.5 0 0
4.375 0.125 0
4.5 0.125 0
4.25 0.125 0
4.375 0.125 0
4.25 0.25 0
4.375 0.25 0
4.375 0.125 0
4.5 0.125 0
4.375 0.25 0
4.5 0.25 0
4 0.25 0
4.125 0.25 0
4 0.375 0
4.125 0.375 0
4.125 0.25 0
4.25 0.25 0
4.125 0.375 0
4.25 0.375 0
4 0.375 0
4.125 0.375 0
4 0.5 0
4.125 0.5 0
4.125 0.375 0
4.25 0.375 0
4.125 0.5 0
4.25 0.5 0
4.25 0.25 0
4.375 0.25 0
4.25 0.375 0
4.375 0.375 0
4.375 0.25 0
4.5 0.25 0
4.375 0.375 0
4.5 0.375 0
4.25 0.375 0
4.375 0.375 0
4.25 0.5 0
4.375 0.5 0
4.375 0.375 0
4.5 0.375 0
4.375 0.5 0
4.5 0.5 0
4.5 0 0
4.625 0 0
4.5 0.125 0
4.625 0.125 0
4.625 0 0
4.75 0 0
4.625 0.125 0
4.75 0.125 0
4.5 0.125 0
4.625 0.125 0
4.5 0.25 0
4.625 0.25 0
4.625 0.125 0
4.75 0.125 0
4.625 0.25 0
4.75 0.25 0
4.75 0 0
4.875 0 0
4.75 0.125 0
4.875 0.125 0
4.875 0 0
5 0 0
4.875 0.125 0
5 0.125 0
4.75 0.125 0
4.875 0.125 0
4.75 0.25 0
4.875 0.25 0
4.875 0.125 0
5 0.125 0
4.875 0.25 0
5 0.25 0
4.5 0.25 0
4.625 0.25 0
4.5 0.375 0
4.625 0.375 0
4.625 0.25 0
4.75 0.25 0
4.625 0.375 0
4.75 0.375 0
4.5 0.375 0
4.625 0.375 0
4.5 0.5 0
4.625 0.5 0
4.625 0.375 0
4.75 0.375 0
4.625 0.5 0
4.75 0.5 0
4.75 0.25 0
4.875 0.25 0
4.75 0.375 0
4.875 0.375 0
4.875 0.25 0
5 0.25 0
4.875 0.375 0
5 0.375 0
4.75 0.375 0
4.875 0.375 0
4.75 0.5 0
4.875 0.5 0
4.875 0.375 0
5 0.375 0
4.875 0.5 0
5 0.5 0
4 0.5 0
4.125 0.5 0
4 0.625 0
4.125 0.625 0
4.125 0.5 0
4.25 0.5 0
4.125 0.625 0
4.25 0.625 0
4 0.625 0
4.125 0.625 0
4 0.75 0
4.125 0.75 0
4.125 0.625 0
4.25 0.625 0
4.125 0.75 0
4.25 0.75 0
4.25 0.5 0
4.375 0.5 0
4.25 0.625 0
4.375 0.625 0
4.375 0.5 0
4.5 0.5 0
4.375 0.625 0
4.5 0.625 0
4.25 0.625 0
4.375 0.625 0
4.25 0.75 0
4.375 0.75 0
4.375 0.625 0
4.5 0.625 0
4.375 0.75 0
4.5 0.75 0
4 0.75 0
4.125 0.75 0
4 0.875 0
4.125 0.875 0
4.125 0.75 0
4.25 0.75 0
4.125 0.875 0
4.25 0.875 0
4 0.875 0
4.125 0.875 0
4 1 0
4.125 1 0
4.125 0.875 0
4.25 0.875 0
4.125 1 0
4.25 1 0
4.25 0.75 0
4.375 0.75 0
4.25 0.875 0
4.375 0.875 0
4.375 0.75 0
4.5 0.75 0
4.375 0.875 0
4.5 0.875 0
4.25 0.875 0
4.375 0.875 0
4.25 1 0
4.375 1 0
4.375 0.875 0
4.5 0.875 0
4.375 1 0
4.5 1 0
4.5 0.5 0
4.625 0.5 0
4.5 0.625 0
4.625 0.625 0
4.625 0.5 0
4.75 0.5 0
4.625 0.625 0
4.75 0.625 0
4.5 0.625 0
4.625 0.625 0
4.5 0.75 0
4.625 0.75 0
4.625 0.625 0
4.75 0.625 0
4.625 0.75 0
4.75 0.75 0
4.75 0.5 0
4.875 0.5 0
4.75 0.625 0
4.875 0.625 0
4.875 0.5 0
5 0.5 0
4.875 0.625 0
5 0.625 0
4.75 0.625 0
4.875 0.625 0
4.75 0.75 0
4.875 0.75 0
4.875 0.625 0
5 0.625 0
4.875 0.75 0
5 0.75 0
4.5 0.75 0
4.625 0.75 0
4.5 0.875 0
4.625 0.875 0
4.625 0.75 0
4.75 0.75 0
4.625 0.875 0
4.75 0.875 0
4.5 0.875 0
4.625 0.875 0
4.5 1 0
4.625 1 0
4.625 0.875 0
4.75 0.875 0
4.625 1 0
4.75 1 0
4.75 0.75 0
4.875 0.75 0
4.75 0.875 0
4.875 0.875 0
4.875 0.75 0
5 0.75 0
4.875 0.875 0
5 0.875 0
4.75 0.875 0
4.875 0.875 0
4.75 1 0
4.875 1 0
4.875 0.875 0
5 0.875 0
4.875 1 0
5 1 0
3 0 0
3.125 0 0
3 0.125 0
3.125 0.125 0
3.125 0 0
3.25 0 0
3.125 0.125 0
3.25 0.125 0
3 0.125 0
3.125 0.125 0
3 0.25 0
3.125 0.25 0
3.125 0.125 0
3.25 0.125 0
3.125 0.25 0
3.25 0.25 0
3.25 0 0
3.375 0 0
3.25 0.125 0
3.375 0.125 0
3.375 0 0
3.5 0 0
3.375 0.125 0
3.5 0.125 0
3.25 0.125 0
3.375 0.125 0
3.25 0.25 0
3.375 0.25 0
3.375 0.125 0
3.5 0.125 0
3.375 0.25 0
3.5 0.25 0
3 0.25 0
3.125 0.25 0
3 0.375 0
3.125 0.375 0
3.125 0.25 0
3.25 0.25 0
3.125 0.375 0
3.25 0.375 0
3 0.375 0
3.125 0.375 0
3 0.5 0
3.125 0.5 0
3.125 0.375 0
3.25 0.375 0
3.125 0.5 0
3.25 0.5 0
3.25 0.25 0
3.375 0.25 0
3.25 0.375 0
3.375 0.375 0
3.375 0.25 0
3.5 0.25 0
3.375 0.375 0
3.5 0.375 0
3.25 0.375 0
3.375 0.375 0
3.25 0.5 0
3.375 0.5 0
3.375 0.375 0
3.5 0.375 0
3.375 0.5 0
3.5 0.5 0
3.5 0 0
3.625 0 0
3.5 0.125 0
3.625 0.125 0
3.625 0 0
3.75 0 0
3.625 0.125 0
3.75 0.125 0
3.5 0.125 0
3.625 0.125 0
3.5 0.25 0
3.625 0.25 0
3.625 0.125 0
3.75 0.125 0
3.625 0.25 0
3.75 0.25 0
3.75 0 0
3.875 0 0
3.75 0.125 0
3.875 0.125 0
3.875 0 0
4 0 0
3.875 0.125 0
4 0.125 0
3.75 0.125 0
3.875 0.125 0
3.75 0.25 0
3.875 0.25 0
3.875 0.125 0
4 0.125 0
3.875 0.25 0
4 0.25 0
3.5 0.25 0
3.625 0.25 0
3.5 0.375 0
3.625 0.375 0
3.625 0.25 0
3.75 0.25 0
3.625 0.375 0
3.75 0.375 0
3.5 0.375 0
3.625 0.375 0
3.5 0.5 0
3.625 0.5 0
3.625 0.375 0
3.75 0.375 0
3.625 0.5 0
3.75 0.5 0
3.75 0.25 0
3.875 0.25 0
3.75 0.375 0
3.875 0.375 0
3.875 0.25 0
4 0.25 0
3.875 0.375 0
4 0.375 0
3.75 0.375 0
3.875 0.375 0
3.75 0.5 0
3.875 0.5 0
3.875 0.375 0
4 0.375 0
3.875 0.5 0
4 0.5 0
3 0.5 0
3.125 0.5 0
3 0.625 0
3.125 0.625 0
3.125 0.5 0
3.25 0.5 0
3.125 0.625 0
3.25 0.625 0
3 0.625 0
3.125 0.625 0
3 0.75 0
3.125 0.75 0
3.125 0.625 0
3.25 0.625 0
3.125 0.75 0
3.25 0.75 0
3.25 0.5 0
3.375 0.5 0
3.25 0.625 0
3.375 0.625 0
3.375 0.5 0
3.5 0.5 0
3.375 0.625 0
3.5 0.625 0
3.25 0.625 0
3.375 0.625 0
3.25 0.75 0
3.375 0.75 0
3.375 0.625 0
3.5 0.625 0
3.375 0.75 0
3.5 0.75 0
3 0.75 0
3.125 0.75 0
3 0.875 0
3.125 0.875 0
3.125 0.75 0
3.25 0.75 0
3.125 0.875 0
3.25 0.875 0
3 0.875 0
3.125 0.875 0
3 1 0
3.125 1 0
3.125 0.875 0
3.25 0.875 0
3.125 1 0
3.25 1 0
3.25 0.75 0
3.375 0.75 0
3.25 0.875 0
3.375 0.875 0
3.375 0.75 0
3.5 0.75 0
3.375 0.875 0
3.5 0.875 0
3.25 0.875 0
3.375 0.875 0
3.25 1 0
3.375 1 0
3.375 0.875 0
3.5 0.875 0
3.375 1 0
3.5 1 0
3.5 0.5 0
3.625 0.5 0
3.5 0.625 0
3.625 0.625 0
3.625 0.5 0
3.75 0.5 0
3.625 0.625 0
3.75 0.625 0
3.5 0.625 0
3.625 0.625 0
3.5 0.75 0
3.625 0.75 0
3.625 0.625 0
3.75 0.625 0
3.625 0.75 0
3.75 0.75 0
3.75 0.5 0
3.875 0.5 0
3.75 0.625 0
3.875 0.625 0
3.875 0.5 0
4 0.5 0
3.875 0.625 0
4 0.625 0
3.75 0.625 0
3.875 0.625 0
3.75 0.75 0
3.875 0.75 0
3.875 0.625 0
4 0.625 0
3.875 0.75 0
4 0.75 0
3.5 0.75 0
3.625 0.75 0
3.5 0.875 0
3.625 0.875 0
3.625 0.75 0
3.75 0.75 0
3.625 0.875 0
3.75 0.875 0
3.5 0.875 0
3.625 0.875 0
3.5 1 0
3.625 1 0
3.625 0.875 0
3.75 0.875 0
3.625 1 0
3.75 1 0
3.75 0.75 0
3.875 0.75 0
3.75 0.875 0
3.875 0.875 0
3.875 0.75 0
4 0.75 0
3.875 0.875 0
4 0.875 0
3.75 0.875 0
3.875 0.875 0
3.75 1 0
3.875 1 0
3.875 0.875 0
4 0.875 0
3.875 1 0
4 1 0
2 0 0
2.125 0 0
2 0.125 0
2.125 0.125 0
2.125 0 0
2.25 0 0
2.125 0.125 0
2.25 0.125 0
2 0.125 0
2.125 0.125 0
2 0.25 0
2.125 0.25 0
2.125 0.125 0
2.25 0.125 0
2.125 0.25 0
2.25 0.25 0
2.25 0 0
2.375 0 0
2.25 0.125 0
2.375 0.125 0
2.375 0 0
2.5 0 0
2.375 0.125 0
2.5 0.125 0
2.25 0.125 0
2.375 0.125 0
2.25 0.25 0
2.375 0.25 0
2.375 0.125 0
2.5 0.125 0
2.375 0.25 0
2.5 0.25 0
2 0.25 0
2.125 0.25 0
2 0.375 0
2.125 0.375 0
2.125 0.25 0
2.25 0.25 0
2.125 0.375 0
2.25 0.375 0
2 0.375 0
2.125 0.375 0
2 0.5 0
2.125 0.5 0
2.125 0.375 0
2.25 0.375 0
2.125 0.5 0
2.25 0.5 0
2.25 0.25 0
2.375 0.25 0
2.25 0.375 0
2.375 0.375 0
2.375 0.25 0
[...]
POINT_DATA 1536
VECTORS displacements double
36.1131 -41.6768 0
36.7872 -37.3133 0
31.9344 -41.8773 0
32.4385 -37.5027 0
36.7872 -37.3133 0
37.4285 -32.7845 0
32.4385 -37.5027 0
32.9132 -32.9629 0
31.9344 -41.8773 0
32.4385 -37.5027 0
28.034 -42.014 0
28.3681 -37.6279 0
32.4385 -37.5027 0
32.9132 -32.9629 0
28.3681 -37.6279 0
28.6759 -33.0749 0
37.4285 -32.7845 0
38.0418 -28.0957 0
32.9132 -32.9629 0
33.3574 -28.2635 0
38.0418 -28.0957 0
38.6371 -23.2454 0
33.3574 -28.2635 0
33.7687 -23.4045 0
32.9132 -32.9629 0
33.3574 -28.2635 0
28.6759 -33.0749 0
28.9516 -28.36 0
33.3574 -28.2635 0
33.7687 -23.4045 0
28.9516 -28.36 0
29.1855 -23.4806 0
28.034 -42.014 0
28.3681 -37.6279 0
24.2991 -42.0839 0
24.4591 -37.6862 0
28.3681 -37.6279 0
28.6759 -33.0749 0
24.4591 -37.6862 0
24.5983 -33.119 0
24.2991 -42.0839 0
24.4591 -37.6862 0
20.6382 -42.0885 0
20.6229 -37.6815 0
24.4591 -37.6862 0
24.5983 -33.119 0
20.6229 -37.6815 0
20.5951 -33.1031 0
28.6759 -33.0749 0
28.9516 -28.36 0
24.5983 -33.119 0
24.7095 -28.387 0
28.9516 -28.36 0
29.1855 -23.4806 0
24.7095 -28.387 0
24.7812 -23.4901 0
24.5983 -33.119 0
24.7095 -28.387 0
20.5951 -33.1031 0
20.5483 -28.3602 0
24.7095 -28.387 0
24.7812 -23.4901 0
20.5483 -28.3602 0
20.4741 -23.4593 0
38.6371 -23.2454 0
39.2338 -18.2215 0
33.7687 -23.4045 0
34.1382 -18.3665 0
39.2338 -18.2215 0
39.875 -12.9461 0
34.1382 -18.3665 0
34.437 -13.1111 0
33.7687 -23.4045 0
34.1382 -18.3665 0
29.1855 -23.4806 0
29.3602 -18.4207 0
34.1382 -18.3665 0
34.437 -13.1111 0
29.3602 -18.4207 0
29.4391 -13.1064 0
39.875 -12.9461 0
40.6256 -7.38345 0
34.437 -13.1111 0
34.5169 -7.32009 0
40.6256 -7.38345 0
41.0595 0 0
34.5169 -7.32009 0
34.68 -1.34514 0
34.437 -13.1111 0
34.5169 -7.32009 0
29.4391 -13.1064 0
29.4247 -7.54415 0
34.5169 -7.32009 0
34.68 -1.34514 0
29.4247 -7.54415 0
29.5734 -2.2994 0
29.1855 -23.4806 0
29.3602 -18.4207 0
24.7812 -23.4901 0
24.7971 -18.4154 0
29.3602 -18.4207 0
29.4391 -13.1064 0
24.7971 -18.4154 0
24.7474 -13.1706 0
24.7812 -23.4901 0
24.7971 -18.4154 0
20.4741 -23.4593 0
20.3704 -18.4189 0
24.7971 -18.4154 0
24.7474 -13.1706 0
20.3704 -18.4189 0
20.286 -13.303 0
29.4391 -13.1064 0
29.4247 -7.54415 0
24.7474 -13.1706 0
24.7551 -7.91064 0
29.4247 -7.54415 0
29.5734 -2.2994 0
24.7551 -7.91064 0
24.8834 -2.97083 0
24.7474 -13.1706 0
24.7551 -7.91064 0
20.286 -13.303 0
20.2824 -8.24533 0
24.7551 -7.91064 0
24.8834 -2.97083 0
20.2824 -8.24533 0
20.3771 -3.47907 0
20.6382 -42.0885 0
20.6229 -37.6815 0
16.9755 -42.0327 0
16.7872 -37.621 0
20.6229 -37.6815 0
20.5951 -33.1031 0
16.7872 -37.621 0
16.5972 -33.0395 0
16.9755 -42.0327 0
16.7872 -37.621 0
13.2378 -41.9239 0
12.884 -37.5152 0
16.7872 -37.621 0
16.5972 -33.0395 0
12.884 -37.5152 0
12.5456 -32.9423 0
20.5951 -33.1031 0
20.5483 -28.3602 0
16.5972 -33.0395 0
16.4037 -28.2997 0
20.5483 -28.3602 0
20.4741 -23.4593 0
16.4037 -28.2997 0
16.2106 -23.4204 0
16.5972 -33.0395 0
16.4037 -28.2997 0
12.5456 -32.9423 0
12.2286 -28.2202 0
16.4037 -28.2997 0
16.2106 -23.4204 0
12.2286 -28.2202 0
11.9486 -23.3747 0
13.2378 -41.9239 0
12.884 -37.5152 0
9.35014 -41.7701 0
8.84692 -37.371 0
12.884 -37.5152 0
12.5456 -32.9423 0
8.84692 -37.371 0
8.37934 -32.8137 0
9.35014 -41.7701 0
8.84692 -37.371 0
5.18506 -41.571 0
4.54322 -37.187 0
8.84692 -37.371 0
8.37934 -32.8137 0
4.54322 -37.187 0
3.96342 -32.6501 0
12.5456 -32.9423 0
12.2286 -28.2202 0
8.37934 -32.8137 0
7.96091 -28.1167 0
12.2286 -28.2202 0
11.9486 -23.3747 0
7.96091 -28.1167 0
7.61015 -23.3083 0
8.37934 -32.8137 0
7.96091 -28.1167 0
3.96342 -32.6501 0
3.45359 -27.981 0
7.96091 -28.1167 0
7.61015 -23.3083 0
3.45359 -27.981 0
3.02363 -23.2039 0
20.4741 -23.4593 0
20.3704 -18.4189 0
16.2106 -23.4204 0
16.0404 -18.4407 0
20.3704 -18.4189 0
20.286 -13.303 0
16.0404 -18.4407 0
15.9314 -13.4333 0
16.2106 -23.4204 0
16.0404 -18.4407 0
11.9486 -23.3747 0
11.7303 -18.4531 0
16.0404 -18.4407 0
15.9314 -13.4333 0
11.7303 -18.4531 0
11.5901 -13.5216 0
20.286 -13.303 0
20.2824 -8.24533 0
15.9314 -13.4333 0
15.9078 -8.50445 0
20.2824 -8.24533 0
20.3771 -3.47907 0
15.9078 -8.50445 0
15.9684 -3.84608 0
15.9314 -13.4333 0
15.9078 -8.50445 0
11.5901 -13.5216 0
11.5402 -8.67528 0
15.9078 -8.50445 0
15.9684 -3.84608 0
11.5402 -8.67528 0
11.561 -4.05307 0
11.9486 -23.3747 0
11.7303 -18.4531 0
7.61015 -23.3083 0
7.33839 -18.4294 0
11.7303 -18.4531 0
11.5901 -13.5216 0
7.33839 -18.4294 0
7.15839 -13.5462 0
7.61015 -23.3083 0
7.33839 -18.4294 0
3.02363 -23.2039 0
2.69946 -18.3608 0
7.33839 -18.4294 0
7.15839 -13.5462 0
2.69946 -18.3608 0
2.5116 -13.5208 0
11.5901 -13.5216 0
11.5402 -8.67528 0
7.15839 -13.5462 0
7.07552 -8.75289 0
11.5402 -8.67528 0
11.561 -4.05307 0
7.07552 -8.75289 0
7.06135 -4.11559 0
7.15839 -13.5462 0
7.07552 -8.75289 0
2.5116 -13.5208 0
2.45332 -8.76579 0
7.07552 -8.75289 0
7.06135 -4.11559 0
2.45332 -8.76579 0
2.45056 -4.11861 0
29.4373 -69.5664 0
30.3966 -66.8547 0
26.9362 -69.8493 0
27.6477 -67.1278 0
30.3966 -66.8547 0
31.3201 -63.9003 0
27.6477 -67.1278 0
28.3357 -64.1635 0
26.9362 -69.8493 0
27.6477 -67.1278 0
24.6996 -70.0453 0
25.1654 -67.3176 0
27.6477 -67.1278 0
28.3357 -64.1635 0
25.1654 -67.3176 0
25.6199 -64.3475 0
31.3201 -63.9003 0
32.2081 -60.7148 0
28.3357 -64.1635 0
28.9998 -60.9681 0
32.2081 -60.7148 0
33.0606 -57.3089 0
28.9998 -60.9681 0
29.6391 -57.5521 0
28.3357 -64.1635 0
28.9998 -60.9681 0
25.6199 -64.3475 0
26.062 -61.1459 0
28.9998 -60.9681 0
29.6391 -57.5521 0
26.062 -61.1459 0
26.4904 -57.7232 0
24.6996 -70.0453 0
25.1654 -67.3176 0
22.6727 -70.1527 0
22.8887 -67.4219 0
25.1654 -67.3176 0
25.6199 -64.3475 0
22.8887 -67.4219 0
23.1045 -64.4495 0
22.6727 -70.1527 0
22.8887 -67.4219 0
20.723 -70.1733 0
20.6929 -67.4417 0
22.8887 -67.4219 0
23.1045 -64.4495 0
20.6929 -67.4417 0
20.6718 -64.4704 0
25.6199 -64.3475 0
26.062 -61.1459 0
23.1045 -64.4495 0
23.3191 -61.2456 0
26.062 -61.1459 0
26.4904 -57.7232 0
23.3191 -61.2456 0
23.5304 -57.8198 0
23.1045 -64.4495 0
23.3191 -61.2456 0
20.6718 -64.4704 0
20.6589 -61.2677 0
23.3191 -61.2456 0
23.5304 -57.8198 0
20.6589 -61.2677 0
20.6522 -57.8421 0
33.0606 -57.3089 0
33.8776 -53.6926 0
29.6391 -57.5521 0
30.2531 -53.9254 0
33.8776 -53.6926 0
34.6587 -49.8755 0
30.2531 -53.9254 0
30.8408 -50.0978 0
29.6391 -57.5521 0
30.2531 -53.9254 0
26.4904 -57.7232 0
26.9034 -54.0893 0
30.2531 -53.9254 0
30.8408 -50.0978 0
26.9034 -54.0893 0
27.2995 -50.2536 0
34.6587 -49.8755 0
35.4038 -45.8672 0
30.8408 -50.0978 0
31.4015 -46.0787 0
35.4038 -45.8672 0
36.1131 -41.6768 0
31.4015 -46.0787 0
31.9344 -41.8773 0
30.8408 -50.0978 0
31.4015 -46.0787 0
27.2995 -50.2536 0
27.677 -46.2255 0
31.4015 -46.0787 0
31.9344 -41.8773 0
27.677 -46.2255 0
28.034 -42.014 0
26.4904 -57.7232 0
26.9034 -54.0893 0
23.5304 -57.8198 0
23.7365 -54.1816 0
26.9034 -54.0893 0
27.2995 -50.2536 0
23.7365 -54.1816 0
23.9349 -50.3401 0
23.5304 -57.8198 0
23.7365 -54.1816 0
20.6522 -57.8421 0
20.6495 -54.2025 0
23.7365 -54.1816 0
23.9349 -50.3401 0
20.6495 -54.2025 0
20.6482 -50.3576 0
27.2995 -50.2536 0
27.677 -46.2255 0
23.9349 -50.3401 0
24.1233 -46.3046 0
27.677 -46.2255 0
28.034 -42.014 0
24.1233 -46.3046 0
24.2991 -42.0839 0
23.9349 -50.3401 0
24.1233 -46.3046 0
20.6482 -50.3576 0
20.6454 -46.3167 0
24.1233 -46.3046 0
24.2991 -42.0839 0
20.6454 -46.3167 0
20.6382 -42.0885 0
20.723 -70.1733 0
20.6929 -67.4417 0
18.7509 -70.1113 0
18.4825 -67.3813 0
20.6929 -67.4417 0
20.6718 -64.4704 0
18.4825 -67.3813 0
18.2302 -64.4139 0
18.7509 -70.1113 0
18.4825 -67.3813 0
16.6637 -69.972 0
16.1674 -67.2463 0
18.4825 -67.3813 0
18.2302 -64.4139 0
16.1674 -67.2463 0
15.6918 -64.2852 0
20.6718 -64.4704 0
20.6589 -61.2677 0
18.2302 -64.4139 0
17.9934 -61.2154 0
20.6589 -61.2677 0
20.6522 -57.8421 0
17.9934 -61.2154 0
17.7706 -57.793 0
18.2302 -64.4139 0
17.9934 -61.2154 0
15.6918 -64.2852 0
15.2369 -61.0932 0
17.9934 -61.2154 0
17.7706 -57.793 0
15.2369 -61.0932 0
14.8019 -57.6763 0
16.6637 -69.972 0
16.1674 -67.2463 0
14.3516 -69.7626 0
13.6385 -67.0438 0
16.1674 -67.2463 0
15.6918 -64.2852 0
13.6385 -67.0438 0
12.9495 -64.0903 0
14.3516 -69.7626 0
13.6385 -67.0438 0
11.8246 -69.4819 0
10.8815 -66.7714 0
13.6385 -67.0438 0
12.9495 -64.0903 0
10.8815 -66.7714 0
9.96549 -63.8267 0
15.6918 -64.2852 0
15.2369 -61.0932 0
12.9495 -64.0903 0
12.285 -60.9061 0
15.2369 -61.0932 0
14.8019 -57.6763 0
12.285 -60.9061 0
11.6456 -57.4968 0
12.9495 -64.0903 0
12.285 -60.9061 0
9.96549 -63.8267 0
9.07906 -60.6519 0
12.285 -60.9061 0
11.6456 -57.4968 0
9.07906 -60.6519 0
8.22457 -57.2523 0
20.6522 -57.8421 0
20.6495 -54.2025 0
17.7706 -57.793 0
17.5598 -54.1547 0
20.6495 -54.2025 0
20.6482 -50.3576 0
17.5598 -54.1547 0
17.3589 -50.309 0
17.7706 -57.793 0
17.5598 -54.1547 0
14.8019 -57.6763 0
14.3859 -54.0421 0
17.5598 -54.1547 0
17.3589 -50.309 0
14.3859 -54.0421 0
13.9876 -50.1987 0
20.6482 -50.3576 0
20.6454 -46.3167 0
17.3589 -50.309 0
17.1651 -46.2652 0
20.6454 -46.3167 0
20.6382 -42.0885 0
17.1651 -46.2652 0
16.9755 -42.0327 0
17.3589 -50.309 0
17.1651 -46.2652 0
13.9876 -50.1987 0
13.6054 -46.1557 0
17.1651 -46.2652 0
16.9755 -42.0327 0
13.6054 -46.1557 0
13.2378 -41.9239 0
14.8019 -57.6763 0
14.3859 -54.0421 0
11.6456 -57.4968 0
11.0318 -53.8694 0
14.3859 -54.0421 0
13.9876 -50.1987 0
11.0318 -53.8694 0
10.4442 -50.0323 0
11.6456 -57.4968 0
11.0318 -53.8694 0
8.22457 -57.2523 0
7.40452 -53.6352 0
11.0318 -53.8694 0
10.4442 -50.0323 0
7.40452 -53.6352 0
6.62182 -49.8088 0
13.9876 -50.1987 0
13.6054 -46.1557 0
10.4442 -50.0323 0
9.88329 -45.9953 0
13.6054 -46.1557 0
13.2378 -41.9239 0
9.88329 -45.9953 0
9.35014 -41.7701 0
10.4442 -50.0323 0
9.88329 -45.9953 0
6.62182 -49.8088 0
5.88028 -45.7833 0
9.88329 -45.9953 0
9.35014 -41.7701 0
5.88028 -45.7833 0
5.18506 -41.571 0
20.5297 -80.6731 0
21.7342 -80.4821 0
20.5297 -81.0203 0
21.3779 -80.8274 0
21.7342 -80.4821 0
22.9263 -79.9142 0
21.3779 -80.8274 0
22.2204 -80.2542 0
20.5297 -81.0203 0
21.3779 -80.8274 0
20.5297 -81.2971 0
21.0958 -81.0996 0
21.3779 -80.8274 0
22.2204 -80.2542 0
21.0958 -81.0996 0
21.6532 -80.5147 0
22.9263 -79.9142 0
24.0958 -78.9833 0
22.2204 -80.2542 0
23.0522 -79.3155 0
24.0958 -78.9833 0
25.2353 -77.7087 0
23.0522 -79.3155 0
23.8689 -78.0315 0
22.2204 -80.2542 0
23.0522 -79.3155 0
21.6532 -80.5147 0
22.1966 -79.5614 0
23.0522 -79.3155 0
23.8689 -78.0315 0
22.1966 -79.5614 0
22.7243 -78.2633 0
20.5297 -81.2971 0
21.0958 -81.0996 0
20.5297 -81.6071 0
20.8873 -81.394 0
21.0958 -81.0996 0
21.6532 -80.5147 0
20.8873 -81.394 0
21.2198 -80.7701 0
20.5297 -81.6071 0
20.8873 -81.394 0
20.5297 -81.9467 0
20.6902 -81.7077 0
20.8873 -81.394 0
21.2198 -80.7701 0
20.6902 -81.7077 0
20.809 -81.0207 0
21.6532 -80.5147 0
22.1966 -79.5614 0
21.2198 -80.7701 0
21.5157 -79.7709 0
22.1966 -79.5614 0
22.7243 -78.2633 0
21.5157 -79.7709 0
21.7777 -78.4335 0
21.2198 -80.7701 0
21.5157 -79.7709 0
20.809 -81.0207 0
20.8691 -79.9484 0
21.5157 -79.7709 0
21.7777 -78.4335 0
20.8691 -79.9484 0
20.8772 -78.5475 0
25.2353 -77.7087 0
26.3405 -76.1108 0
23.8689 -78.0315 0
24.6673 -76.4237 0
26.3405 -76.1108 0
27.4095 -74.2095 0
24.6673 -76.4237 0
25.4454 -74.5124 0
23.8689 -78.0315 0
24.6673 -76.4237 0
22.7243 -78.2633 0
23.2368 -76.6437 0
24.6673 -76.4237 0
25.4454 -74.5124 0
23.2368 -76.6437 0
23.7359 -74.7228 0
27.4095 -74.2095 0
28.4417 -72.0228 0
25.4454 -74.5124 0
26.202 -72.3156 0
28.4417 -72.0228 0
29.4373 -69.5664 0
26.202 -72.3156 0
26.9362 -69.8493 0
25.4454 -74.5124 0
26.202 -72.3156 0
23.7359 -74.7228 0
24.2232 -72.5182 0
26.202 -72.3156 0
26.9362 -69.8493 0
24.2232 -72.5182 0
24.6996 -70.0453 0
22.7243 -78.2633 0
23.2368 -76.6437 0
21.7777 -78.4335 0
22.0155 -76.7856 0
23.2368 -76.6437 0
23.7359 -74.7228 0
22.0155 -76.7856 0
22.2392 -74.8465 0
21.7777 -78.4335 0
22.0155 -76.7856 0
20.8772 -78.5475 0
20.8498 -76.8534 0
22.0155 -76.7856 0
22.2392 -74.8465 0
20.8498 -76.8534 0
20.8067 -74.8864 0
23.7359 -74.7228 0
24.2232 -72.5182 0
22.2392 -74.8465 0
22.4567 -72.6313 0
24.2232 -72.5182 0
24.6996 -70.0453 0
22.4567 -72.6313 0
22.6727 -70.1527 0
22.2392 -74.8465 0
22.4567 -72.6313 0
20.8067 -74.8864 0
20.762 -72.6573 0
22.4567 -72.6313 0
22.6727 -70.1527 0
20.762 -72.6573 0
20.723 -70.1733 0
20.5297 -81.9467 0
20.6902 -81.7077 0
20.5297 -82.2956 0
20.4806 -82.0135 0
20.6902 -81.7077 0
20.809 -81.0207 0
20.4806 -82.0135 0
20.3691 -81.2322 0
20.5297 -82.2956 0
20.4806 -82.0135 0
20.5297 -82.6294 0
20.2254 -82.2754 0
20.4806 -82.0135 0
20.3691 -81.2322 0
20.2254 -82.2754 0
19.8482 -81.3531 0
20.809 -81.0207 0
20.8691 -79.9484 0
20.3691 -81.2322 0
20.1793 -80.0626 0
20.8691 -79.9484 0
20.8772 -78.5475 0
20.1793 -80.0626 0
19.9232 -78.5822 0
20.3691 -81.2322 0
20.1793 -80.0626 0
19.8482 -81.3531 0
19.3622 -80.0552 0
20.1793 -80.0626 0
19.9232 -78.5822 0
19.3622 -80.0552 0
18.8176 -78.5038 0
20.5297 -82.6294 0
20.2254 -82.2754 0
20.5297 -82.9157 0
19.8996 -82.4065 0
20.2254 -82.2754 0
19.8482 -81.3531 0
19.8996 -82.4065 0
19.1139 -81.2558 0
20.5297 -82.9157 0
19.8996 -82.4065 0
20.5297 -82.9453 0
19.1716 -82.2645 0
19.8996 -82.4065 0
19.1139 -81.2558 0
19.1716 -82.2645 0
17.9695 -80.9347 0
19.8482 -81.3531 0
19.3622 -80.0552 0
19.1139 -81.2558 0
18.2628 -79.8699 0
19.3622 -80.0552 0
18.8176 -78.5038 0
18.2628 -79.8699 0
17.4345 -78.2957 0
19.1139 -81.2558 0
18.2628 -79.8699 0
17.9695 -80.9347 0
16.878 -79.5597 0
18.2628 -79.8699 0
17.4345 -78.2957 0
16.878 -79.5597 0
15.8239 -77.9877 0
20.8772 -78.5475 0
20.8498 -76.8534 0
19.9232 -78.5822 0
19.6315 -76.8368 0
20.8498 -76.8534 0
20.8067 -74.8864 0
19.6315 -76.8368 0
19.3306 -74.8414 0
19.9232 -78.5822 0
19.6315 -76.8368 0
18.8176 -78.5038 0
18.2629 -76.7226 0
19.6315 -76.8368 0
19.3306 -74.8414 0
18.2629 -76.7226 0
17.7145 -74.709 0
20.8067 -74.8864 0
20.762 -72.6573 0
19.3306 -74.8414 0
19.0346 -72.599 0
20.762 -72.6573 0
20.723 -70.1733 0
19.0346 -72.599 0
18.7509 -70.1113 0
19.3306 -74.8414 0
19.0346 -72.599 0
17.7145 -74.709 0
17.1802 -72.4596 0
19.0346 -72.599 0
18.7509 -70.1113 0
17.1802 -72.4596 0
16.6637 -69.972 0
18.8176 -78.5038 0
18.2629 -76.7226 0
17.4345 -78.2957 0
16.6298 -76.5063 0
18.2629 -76.7226 0
17.7145 -74.709 0
16.6298 -76.5063 0
15.8477 -74.4917 0
17.4345 -78.2957 0
16.6298 -76.5063 0
15.8239 -77.9877 0
14.7929 -76.2045 0
16.6298 -76.5063 0
15.8477 -74.4917 0
14.7929 -76.2045 0
13.7822 -74.1963 0
17.7145 -74.709 0
17.1802 -72.4596 0
15.8477 -74.4917 0
15.0882 -72.245 0
17.1802 -72.4596 0
16.6637 -69.972 0
15.0882 -72.245 0
14.3516 -69.7626 0
15.8477 -74.4917 0
15.0882 -72.245 0
13.7822 -74.1963 0
12.7922 -71.9566 0
15.0882 -72.245 0
14.3516 -69.7626 0
12.7922 -71.9566 0
11.8246 -69.4819 0
11.6222 -69.5664 0
12.6178 -72.0228 0
14.1232 -69.8493 0
14.8575 -72.3156 0
12.6178 -72.0228 0
13.65 -74.2095 0
14.8575 -72.3156 0
15.6141 -74.5124 0
14.1232 -69.8493 0
14.8575 -72.3156 0
16.3599 -70.0453 0
16.8363 -72.5182 0
14.8575 -72.3156 0
15.6141 -74.5124 0
16.8363 -72.5182 0
17.3235 -74.7228 0
13.65 -74.2095 0
14.719 -76.1108 0
15.6141 -74.5124 0
16.3922 -76.4237 0
14.719 -76.1108 0
15.8242 -77.7087 0
16.3922 -76.4237 0
17.1906 -78.0315 0
15.6141 -74.5124 0
16.3922 -76.4237 0
17.3235 -74.7228 0
17.8227 -76.6437 0
16.3922 -76.4237 0
17.1906 -78.0315 0
17.8227 -76.6437 0
18.3352 -78.2633 0
16.3599 -70.0453 0
16.8363 -72.5182 0
18.3868 -70.1527 0
18.6027 -72.6313 0
16.8363 -72.5182 0
17.3235 -74.7228 0
18.6027 -72.6313 0
18.8203 -74.8465 0
18.3868 -70.1527 0
18.6027 -72.6313 0
20.3364 -70.1733 0
20.2975 -72.6573 0
18.6027 -72.6313 0
18.8203 -74.8465 0
20.2975 -72.6573 0
20.2528 -74.8864 0
17.3235 -74.7228 0
17.8227 -76.6437 0
18.8203 -74.8465 0
19.044 -76.7856 0
17.8227 -76.6437 0
18.3352 -78.2633 0
19.044 -76.7856 0
19.2818 -78.4335 0
18.8203 -74.8465 0
19.044 -76.7856 0
20.2528 -74.8864 0
20.2096 -76.8534 0
19.044 -76.7856 0
19.2818 -78.4335 0
20.2096 -76.8534 0
20.1823 -78.5475 0
15.8242 -77.7087 0
16.9637 -78.9833 0
17.1906 -78.0315 0
18.0073 -79.3155 0
16.9637 -78.9833 0
18.1331 -79.9142 0
18.0073 -79.3155 0
18.8391 -80.2542 0
17.1906 -78.0315 0
18.0073 -79.3155 0
18.3352 -78.2633 0
18.8628 -79.5614 0
18.0073 -79.3155 0
18.8391 -80.2542 0
18.8628 -79.5614 0
19.4062 -80.5147 0
18.1331 -79.9142 0
19.3253 -80.4821 0
18.8391 -80.2542 0
19.6816 -80.8274 0
19.3253 -80.4821 0
20.5297 -80.6731 0
19.6816 -80.8274 0
20.5297 -81.0203 0
18.8391 -80.2542 0
19.6816 -80.8274 0
19.4062 -80.5147 0
19.9637 -81.0996 0
19.6816 -80.8274 0
20.5297 -81.0203 0
19.9637 -81.0996 0
20.5297 -81.2971 0
18.3352 -78.2633 0
18.8628 -79.5614 0
19.2818 -78.4335 0
19.5438 -79.7709 0
18.8628 -79.5614 0
19.4062 -80.5147 0
19.5438 -79.7709 0
19.8396 -80.7701 0
19.2818 -78.4335 0
19.5438 -79.7709 0
20.1823 -78.5475 0
20.1904 -79.9484 0
19.5438 -79.7709 0
19.8396 -80.7701 0
20.1904 -79.9484 0
20.2505 -81.0207 0
19.4062 -80.5147 0
19.9637 -81.0996 0
19.8396 -80.7701 0
20.1722 -81.394 0
19.9637 -81.0996 0
20.5297 -81.2971 0
20.1722 -81.394 0
20.5297 -81.6071 0
19.8396 -80.7701 0
20.1722 -81.394 0
20.2505 -81.0207 0
20.3693 -81.7077 0
20.1722 -81.394 0
20.5297 -81.6071 0
20.3693 -81.7077 0
20.5297 -81.9467 0
20.3364 -70.1733 0
20.2975 -72.6573 0
22.3086 -70.1113 0
22.0249 -72.599 0
20.2975 -72.6573 0
20.2528 -74.8864 0
22.0249 -72.599 0
21.7289 -74.8414 0
22.3086 -70.1113 0
22.0249 -72.599 0
24.3957 -69.972 0
23.8793 -72.4596 0
22.0249 -72.599 0
21.7289 -74.8414 0
23.8793 -72.4596 0
23.3449 -74.709 0
20.2528 -74.8864 0
20.2096 -76.8534 0
21.7289 -74.8414 0
21.428 -76.8368 0
20.2096 -76.8534 0
20.1823 -78.5475 0
21.428 -76.8368 0
21.1363 -78.5822 0
21.7289 -74.8414 0
21.428 -76.8368 0
23.3449 -74.709 0
22.7966 -76.7226 0
21.428 -76.8368 0
21.1363 -78.5822 0
22.7966 -76.7226 0
22.2419 -78.5038 0
24.3957 -69.972 0
23.8793 -72.4596 0
26.7079 -69.7626 0
25.9713 -72.245 0
23.8793 -72.4596 0
23.3449 -74.709 0
25.9713 -72.245 0
25.2118 -74.4917 0
26.7079 -69.7626 0
25.9713 -72.245 0
29.2349 -69.4819 0
28.2672 -71.9566 0
25.9713 -72.245 0
25.2118 -74.4917 0
28.2672 -71.9566 0
27.2772 -74.1963 0
23.3449 -74.709 0
22.7966 -76.7226 0
25.2118 -74.4917 0
24.4297 -76.5063 0
22.7966 -76.7226 0
22.2419 -78.5038 0
24.4297 -76.5063 0
23.625 -78.2957 0
25.2118 -74.4917 0
24.4297 -76.5063 0
27.2772 -74.1963 0
26.2666 -76.2045 0
24.4297 -76.5063 0
23.625 -78.2957 0
26.2666 -76.2045 0
25.2355 -77.9877 0
20.1823 -78.5475 0
20.1904 -79.9484 0
21.1363 -78.5822 0
20.8801 -80.0626 0
20.1904 -79.9484 0
20.2505 -81.0207 0
20.8801 -80.0626 0
20.6904 -81.2322 0
21.1363 -78.5822 0
20.8801 -80.0626 0
22.2419 -78.5038 0
21.6973 -80.0552 0
20.8801 -80.0626 0
20.6904 -81.2322 0
21.6973 -80.0552 0
21.2113 -81.3531 0
20.2505 -81.0207 0
20.3693 -81.7077 0
20.6904 -81.2322 0
20.5788 -82.0135 0
20.3693 -81.7077 0
20.5297 -81.9467 0
20.5788 -82.0135 0
20.5297 -82.2956 0
20.6904 -81.2322 0
20.5788 -82.0135 0
21.2113 -81.3531 0
20.8341 -82.2754 0
20.5788 -82.0135 0
20.5297 -82.2956 0
20.8341 -82.2754 0
20.5297 -82.6294 0
22.2419 -78.5038 0
21.6973 -80.0552 0
23.625 -78.2957 0
22.7966 -79.8699 0
21.6973 -80.0552 0
21.2113 -81.3531 0
22.7966 -79.8699 0
21.9456 -81.2558 0
23.625 -78.2957 0
22.7966 -79.8699 0
25.2355 -77.9877 0
24.1815 -79.5597 0
22.7966 -79.8699 0
21.9456 -81.2558 0
24.1815 -79.5597 0
23.09 -80.9347 0
21.2113 -81.3531 0
20.8341 -82.2754 0
21.9456 -81.2558 0
21.1599 -82.4065 0
20.8341 -82.2754 0
20.5297 -82.6294 0
21.1599 -82.4065 0
20.5297 -82.9157 0
21.9456 -81.2558 0
21.1599 -82.4065 0
23.09 -80.9347 0
21.8879 -82.2645 0
21.1599 -82.4065 0
20.5297 -82.9157 0
21.8879 -82.2645 0
20.5297 -82.9453 0
4.94642 -41.6768 0
5.65564 -45.8672 0
9.12511 -41.8773 0
9.65797 -46.0787 0
5.65564 -45.8672 0
6.40076 -49.8755 0
9.65797 -46.0787 0
10.2187 -50.0978 0
9.12511 -41.8773 0
9.65797 -46.0787 0
13.0255 -42.014 0
13.3825 -46.2255 0
9.65797 -46.0787 0
10.2187 -50.0978 0
13.3825 -46.2255 0
13.76 -50.2536 0
6.40076 -49.8755 0
7.18189 -53.6926 0
10.2187 -50.0978 0
10.8064 -53.9254 0
7.18189 -53.6926 0
7.99883 -57.3089 0
10.8064 -53.9254 0
11.4203 -57.5521 0
10.2187 -50.0978 0
10.8064 -53.9254 0
13.76 -50.2536 0
14.1561 -54.0893 0
10.8064 -53.9254 0
11.4203 -57.5521 0
14.1561 -54.0893 0
14.5691 -57.7232 0
13.0255 -42.014 0
13.3825 -46.2255 0
16.7603 -42.0839 0