# vtk DataFile Version 3.0
#This file was generated by the deal.II library on 2020/9/2 at 8:39:44
ASCII
DATASET UNSTRUCTURED_GRID

POINTS 1536 double
5 0 0
5.125 0 0
5 0.125 0
5.125 0.125 0
5.125 0 0
5.25 0 0
5.125 0.125 0
5.25 0.125 0
5 0.125 0
5.125 0.125 0
5 0.25 0
5.125 0.25 0
5.125 0.125 0
5.25 0.125 0
5.125 0.25 0
5.25 0.25 0
5.25 0 0
5.375 0 0
5.25 0.125 0
5.375 0.125 0
5.375 0 0
5.5 0 0
5.375 0.125 0
5.5 0.125 0
5.25 0.125 0
5.375 0.125 0
5.25 0.25 0
5.375 0.25 0
5.375 0.125 0
5.5 0.125 0
5.375 0.25 0
5.5 0.25 0
5 0.25 0
5.125 0.25 0
5 0.375 0
5.125 0.375 0
5.125 0.25 0
5.25 0.25 0
5.125 0.375 0
5.25 0.375 0
5 0.375 0
5.125 0.375 0
5 0.5 0
5.125 0.5 0
5.125 0.375 0
5.25 0.375 0
5.125 0.5 0
5.25 0.5 0
5.25 0.25 0
5.375 0.25 0
5.25 0.375 0
5.375 0.375 0
5.375 0.25 0
5.5 0.25 0
5.375 0.375 0
5.5 0.375 0
5.25 0.375 0
5.375 0.375 0
5.25 0.5 0
5.375 0.5 0
5.375 0.375 0
5.5 0.375 0
5.375 0.5 0
5.5 0.5 0
5.5 0 0
5.625 0 0
5.5 0.125 0
5.625 0.125 0
5.625 0 0
5.75 0 0
5.625 0.125 0
5.75 0.125 0
5.5 0.125 0
5.625 0.125 0
5.5 0.25 0
5.625 0.25 0
5.625 0.125 0
5.75 0.125 0
5.625 0.25 0
5.75 0.25 0
5.75 0 0
5.875 0 0
5.75 0.125 0
5.875 0.125 0
5.875 0 0
6 0 0
5.875 0.125 0
6 0.125 0
5.75 0.125 0
5.875 0.125 0
5.75 0.25 0
5.875 0.25 0
5.875 0.125 0
6 0.125 0
5.875 0.25 0
6 0.25 0
5.5 0.25 0
5.625 0.25 0
5.5 0.375 0
5.625 0.375 0
5.625 0.25 0
5.75 0.25 0
5.625 0.375 0
5.75 0.375 0
5.5 0.375 0
5.625 0.375 0
5.5 0.5 0
5.625 0.5 0
5.625 0.375 0
5.75 0.375 0
5.625 0.5 0
5.75 0.5 0
5.75 0.25 0
5.875 0.25 0
5.75 0.375 0
5.875 0.375 0
5.875 0.25 0
6 0.25 0
5.875 0.375 0
6 0.375 0
5.75 0.375 0
5.875 0.375 0
5.75 0.5 0
5.875 0.5 0
5.875 0.375 0
6 0.375 0
5.875 0.5 0
6 0.5 0
5 0.5 0
5.125 0.5 0
5 0.625 0
5.125 0.625 0
5.125 0.5 0
5.25 0.5 0
5.125 0.625 0
5.25 0.625 0
5 0.625 0
5.125 0.625 0
5 0.75 0
5.125 0.75 0
5.125 0.625 0
5.25 0.625 0
5.125 0.75 0
5.25 0.75 0
5.25 0.5 0
5.375 0.5 0
5.25 0.625 0
5.375 0.625 0
5.375 0.5 0
5.5 0.5 0
5.375 0.625 0
5.5 0.625 0
5.25 0.625 0
5.375 0.625 0
5.25 0.75 0
5.375 0.75 0
5.375 0.625 0
5.5 0.625 0
5.375 0.75 0
5.5 0.75 0
5 0.75 0
5.125 0.75 0
5 0.875 0
5.125 0.875 0
5.125 0.75 0
5.25 0.75 0
5.125 0.875 0
5.25 0.875 0
5 0.875 0
5.125 0.875 0
5 1 0
5.125 1 0
5.125 0.875 0
5.25 0.875 0
5.125 1 0
5.25 1 0
5.25 0.75 0
5.375 0.75 0
5.25 0.875 0
5.375 0.875 0
5.375 0.75 0
5.5 0.75 0
5.375 0.875 0
5.5 0.875 0
5.25 0.875 0
5.375 0.875 0
5.25 1 0
5.375 1 0
5.375 0.875 0
5.5 0.875 0
5.375 1 0
5.5 1 0
5.5 0.5 0
5.625 0.5 0
5.5 0.625 0
5.625 0.625 0
5.625 0.5 0
5.75 0.5 0
5.625 0.625 0
5.75 0.625 0
5.5 0.625 0
5.625 0.625 0
5.5 0.75 0
5.625 0.75 0
5.625 0.625 0
5.75 0.625 0
5.625 0.75 0
5.75 0.75 0
5.75 0.5 0
5.875 0.5 0
5.75 0.625 0
5.875 0.625 0
5.875 0.5 0
6 0.5 0
5.875 0.625 0
6 0.625 0
5.75 0.625 0
5.875 0.625 0
5.75 0.75 0
5.875 0.75 0
5.875 0.625 0
6 0.625 0
5.875 0.75 0
6 0.75 0
5.5 0.75 0
5.625 0.75 0
5.5 0.875 0
5.625 0.875 0
5.625 0.75 0
5.75 0.75 0
5.625 0.875 0
5.75 0.875 0
5.5 0.875 0
5.625 0.875 0
5.5 1 0
5.625 1 0
5.625 0.875 0
5.75 0.875 0
5.625 1 0
5.75 1 0
5.75 0.75 0
5.875 0.75 0
5.75 0.875 0
5.875 0.875 0
5.875 0.75 0
6 0.75 0
5.875 0.875 0
6 0.875 0
5.75 0.875 0
5.875 0.875 0
5.75 1 0
5.875 1 0
5.875 0.875 0
6 0.875 0
5.875 1 0
6 1 0
4 0 0
4.125 0 0
4 0.125 0
4.125 0.125 0
4.125 0 0
4.25 0 0
4.125 0.125 0
4.25 0.125 0
4 0.125 0
4.125 0.125 0
4 0.25 0
4.125 0.25 0
4.125 0.125 0
4.25 0.125 0
4.125 0.25 0
4.25 0.25 0
4.25 0 0
4.375 0 0
4.25 0.125 0
4.375 0.125 0
4.375 0 0
4.5 0 0
4.375 0.125 0
4.5 0.125 0
4.25 0.125 0
4.375 0.125 0
4.25 0.25 0
4.375 0.25 0
4.375 0.125 0
4.5 0.125 0
4.375 0.25 0
4.5 0.25 0
4 0.25 0
4.125 0.25 0
4 0.375 0
4.125 0.375 0
4.125 0.25 0
4.25 0.25 0
4.125 0.375 0
4.25 0.375 0
4 0.375 0
4.125 0.375 0
4 0.5 0
4.125 0.5 0
4.125 0.375 0
4.25 0.375 0
4.125 0.5 0
4.25 0.5 0
4.25 0.25 0
4.375 0.25 0
4.25 0.375 0
4.375 0.375 0
4.375 0.25 0
4.5 0.25 0
4.375 0.375 0
4.5 0.375 0
4.25 0.375 0
4.375 0.375 0
4.25 0.5 0
4.375 0.5 0
4.375 0.375 0
4.5 0.375 0
4.375 0.5 0
4.5 0.5 0
4.5 0 0
4.625 0 0
4.5 0.125 0
4.625 0.125 0
4.625 0 0
4.75 0 0
4.625 0.125 0
4.75 0.125 0
4.5 0.125 0
4.625 0.125 0
4.5 0.25 0
4.625 0.25 0
4.625 0.125 0
4.75 0.125 0
4.625 0.25 0
4.75 0.25 0
4.75 0 0
4.875 0 0
4.75 0.125 0
4.875 0.125 0
4.875 0 0
5 0 0
4.875 0.125 0
5 0.125 0
4.75 0.125 0
4.875 0.125 0
4.75 0.25 0
4.875 0.25 0
4.875 0.125 0
5 0.125 0
4.875 0.25 0
5 0.25 0
4.5 0.25 0
4.625 0.25 0
4.5 0.375 0
4.625 0.375 0
4.625 0.25 0
4.75 0.25 0
4.625 0.375 0
4.75 0.375 0
4.5 0.375 0
4.625 0.375 0
4.5 0.5 0
4.625 0.5 0
4.625 0.375 0
4.75 0.375 0
4.625 0.5 0
4.75 0.5 0
4.75 0.25 0
4.875 0.25 0
4.75 0.375 0
4.875 0.375 0
4.875 0.25 0
5 0.25 0
4.875 0.375 0
5 0.375 0
4.75 0.375 0
4.875 0.375 0
4.75 0.5 0
4.875 0.5 0
4.875 0.375 0
5 0.375 0
4.875 0.5 0
5 0.5 0
4 0.5 0
4.125 0.5 0
4 0.625 0
4.125 0.625 0
4.125 0.5 0
4.25 0.5 0
4.125 0.625 0
4.25 0.625 0
4 0.625 0
4.125 0.625 0
4 0.75 0
4.125 0.75 0
4.125 0.625 0
4.25 0.625 0
4.125 0.75 0
4.25 0.75 0
4.25 0.5 0
4.375 0.5 0
4.25 0.625 0
4.375 0.625 0
4.375 0.5 0
4.5 0.5 0
4.375 0.625 0
4.5 0.625 0
4.25 0.625 0
4.375 0.625 0
4.25 0.75 0
4.375 0.75 0
4.375 0.625 0
4.5 0.625 0
4.375 0.75 0
4.5 0.75 0
4 0.75 0
4.125 0.75 0
4 0.875 0
4.125 0.875 0
4.125 0.75 0
4.25 0.75 0
4.125 0.875 0
4.25 0.875 0
4 0.875 0
4.125 0.875 0
4 1 0
4.125 1 0
4.125 0.875 0
4.25 0.875 0
4.125 1 0
4.25 1 0
4.25 0.75 0
4.375 0.75 0
4.25 0.875 0
4.375 0.875 0
4.375 0.75 0
4.5 0.75 0
4.375 0.875 0
4.5 0.875 0
4.25 0.875 0
4.375 0.875 0
4.25 1 0
4.375 1 0
4.375 0.875 0
4.5 0.875 0
4.375 1 0
4.5 1 0
4.5 0.5 0
4.625 0.5 0
4.5 0.625 0
4.625 0.625 0
4.625 0.5 0
4.75 0.5 0
4.625 0.625 0
4.75 0.625 0
4.5 0.625 0
4.625 0.625 0
4.5 0.75 0
4.625 0.75 0
4.625 0.625 0
4.75 0.625 0
4.625 0.75 0
4.75 0.75 0
4.75 0.5 0
4.875 0.5 0
4.75 0.625 0
4.875 0.625 0
4.875 0.5 0
5 0.5 0
4.875 0.625 0
5 0.625 0
4.75 0.625 0
4.875 0.625 0
4.75 0.75 0
4.875 0.75 0
4.875 0.625 0
5 0.625 0
4.875 0.75 0
5 0.75 0
4.5 0.75 0
4.625 0.75 0
4.5 0.875 0
4.625 0.875 0
4.625 0.75 0
4.75 0.75 0
4.625 0.875 0
4.75 0.875 0
4.5 0.875 0
4.625 0.875 0
4.5 1 0
4.625 1 0
4.625 0.875 0
4.75 0.875 0
4.625 1 0
4.75 1 0
4.75 0.75 0
4.875 0.75 0
4.75 0.875 0
4.875 0.875 0
4.875 0.75 0
5 0.75 0
4.875 0.875 0
5 0.875 0
4.75 0.875 0
4.875 0.875 0
4.75 1 0
4.875 1 0
4.875 0.875 0
5 0.875 0
4.875 1 0
5 1 0
3 0 0
3.125 0 0
3 0.125 0
3.125 0.125 0
3.125 0 0
3.25 0 0
3.125 0.125 0
3.25 0.125 0
3 0.125 0
3.125 0.125 0
3 0.25 0
3.125 0.25 0
3.125 0.125 0
3.25 0.125 0
3.125 0.25 0
3.25 0.25 0
3.25 0 0
3.375 0 0
3.25 0.125 0
3.375 0.125 0
3.375 0 0
3.5 0 0
3.375 0.125 0
3.5 0.125 0
3.25 0.125 0
3.375 0.125 0
3.25 0.25 0
3.375 0.25 0
3.375 0.125 0
3.5 0.125 0
3.375 0.25 0
3.5 0.25 0
3 0.25 0
3.125 0.25 0
3 0.375 0
3.125 0.375 0
3.125 0.25 0
3.25 0.25 0
3.125 0.375 0
3.25 0.375 0
3 0.375 0
3.125 0.375 0
3 0.5 0
3.125 0.5 0
3.125 0.375 0
3.25 0.375 0
3.125 0.5 0
3.25 0.5 0
3.25 0.25 0
3.375 0.25 0
3.25 0.375 0
3.375 0.375 0
3.375 0.25 0
3.5 0.25 0
3.375 0.375 0
3.5 0.375 0
3.25 0.375 0
3.375 0.375 0
3.25 0.5 0
3.375 0.5 0
3.375 0.375 0
3.5 0.375 0
3.375 0.5 0
3.5 0.5 0
3.5 0 0
3.625 0 0
3.5 0.125 0
3.625 0.125 0
3.625 0 0
3.75 0 0
3.625 0.125 0
3.75 0.125 0
3.5 0.125 0
3.625 0.125 0
3.5 0.25 0
3.625 0.25 0
3.625 0.125 0
3.75 0.125 0
3.625 0.25 0
3.75 0.25 0
3.75 0 0
3.875 0 0
3.75 0.125 0
3.875 0.125 0
3.875 0 0
4 0 0
3.875 0.125 0
4 0.125 0
3.75 0.125 0
3.875 0.125 0
3.75 0.25 0
3.875 0.25 0
3.875 0.125 0
4 0.125 0
3.875 0.25 0
4 0.25 0
3.5 0.25 0
3.625 0.25 0
3.5 0.375 0
3.625 0.375 0
3.625 0.25 0
3.75 0.25 0
3.625 0.375 0
3.75 0.375 0
3.5 0.375 0
3.625 0.375 0
3.5 0.5 0
3.625 0.5 0
3.625 0.375 0
3.75 0.375 0
3.625 0.5 0
3.75 0.5 0
3.75 0.25 0
3.875 0.25 0
3.75 0.375 0
3.875 0.375 0
3.875 0.25 0
4 0.25 0
3.875 0.375 0
4 0.375 0
3.75 0.375 0
3.875 0.375 0
3.75 0.5 0
3.875 0.5 0
3.875 0.375 0
4 0.375 0
3.875 0.5 0
4 0.5 0
3 0.5 0
3.125 0.5 0
3 0.625 0
3.125 0.625 0
3.125 0.5 0
3.25 0.5 0
3.125 0.625 0
3.25 0.625 0
3 0.625 0
3.125 0.625 0
3 0.75 0
3.125 0.75 0
3.125 0.625 0
3.25 0.625 0
3.125 0.75 0
3.25 0.75 0
3.25 0.5 0
3.375 0.5 0
3.25 0.625 0
3.375 0.625 0
3.375 0.5 0
3.5 0.5 0
3.375 0.625 0
3.5 0.625 0
3.25 0.625 0
3.375 0.625 0
3.25 0.75 0
3.375 0.75 0
3.375 0.625 0
3.5 0.625 0
3.375 0.75 0
3.5 0.75 0
3 0.75 0
3.125 0.75 0
3 0.875 0
3.125 0.875 0
3.125 0.75 0
3.25 0.75 0
3.125 0.875 0
3.25 0.875 0
3 0.875 0
3.125 0.875 0
3 1 0
3.125 1 0
3.125 0.875 0
3.25 0.875 0
3.125 1 0
3.25 1 0
3.25 0.75 0
3.375 0.75 0
3.25 0.875 0
3.375 0.875 0
3.375 0.75 0
3.5 0.75 0
3.375 0.875 0
3.5 0.875 0
3.25 0.875 0
3.375 0.875 0
3.25 1 0
3.375 1 0
3.375 0.875 0
3.5 0.875 0
3.375 1 0
3.5 1 0
3.5 0.5 0
3.625 0.5 0
3.5 0.625 0
3.625 0.625 0
3.625 0.5 0
3.75 0.5 0
3.625 0.625 0
3.75 0.625 0
3.5 0.625 0
3.625 0.625 0
3.5 0.75 0
3.625 0.75 0
3.625 0.625 0
3.75 0.625 0
3.625 0.75 0
3.75 0.75 0
3.75 0.5 0
3.875 0.5 0
3.75 0.625 0
3.875 0.625 0
3.875 0.5 0
4 0.5 0
3.875 0.625 0
4 0.625 0
3.75 0.625 0
3.875 0.625 0
3.75 0.75 0
3.875 0.75 0
3.875 0.625 0
4 0.625 0
3.875 0.75 0
4 0.75 0
3.5 0.75 0
3.625 0.75 0
3.5 0.875 0
3.625 0.875 0
3.625 0.75 0
3.75 0.75 0
3.625 0.875 0
3.75 0.875 0
3.5 0.875 0
3.625 0.875 0
3.5 1 0
3.625 1 0
3.625 0.875 0
3.75 0.875 0
3.625 1 0
3.75 1 0
3.75 0.75 0
3.875 0.75 0
3.75 0.875 0
3.875 0.875 0
3.875 0.75 0
4 0.75 0
3.875 0.875 0
4 0.875 0
3.75 0.875 0
3.875 0.875 0
3.75 1 0
3.875 1 0
3.875 0.875 0
4 0.875 0
3.875 1 0
4 1 0
2 0 0
2.125 0 0
2 0.125 0
2.125 0.125 0
2.125 0 0
2.25 0 0
2.125 0.125 0
2.25 0.125 0
2 0.125 0
2.125 0.125 0
2 0.25 0
2.125 0.25 0
2.125 0.125 0
2.25 0.125 0
2.125 0.25 0
2.25 0.25 0
2.25 0 0
2.375 0 0
2.25 0.125 0
2.375 0.125 0
2.375 0 0
2.5 0 0
2.375 0.125 0
2.5 0.125 0
2.25 0.125 0
2.375 0.125 0
2.25 0.25 0
2.375 0.25 0
2.375 0.125 0
2.5 0.125 0
2.375 0.25 0
2.5 0.25 0
2 0.25 0
2.125 0.25 0
2 0.375 0
2.125 0.375 0
2.125 0.25 0
2.25 0.25 0
2.125 0.375 0
2.25 0.375 0
2 0.375 0
2.125 0.375 0
2 0.5 0
2.125 0.5 0
2.125 0.375 0
2.25 0.375 0
2.125 0.5 0
2.25 0.5 0
2.25 0.25 0
2.375 0.25 0
2.25 0.375 0
2.375 0.375 0
2.375 0.25 0
[...]
POINT_DATA 1536
VECTORS displacements double
34.9704 -40.092 0
35.6149 -35.8925 0
30.9477 -40.2841 0
31.4299 -36.0729 0
35.6149 -35.8925 0
36.2245 -31.5362 0
31.4299 -36.0729 0
31.8811 -31.7051 0
30.9477 -40.2841 0
31.4299 -36.0729 0
27.1529 -40.4157 0
27.4706 -36.1925 0
31.4299 -36.0729 0
31.8811 -31.7051 0
27.4706 -36.1925 0
27.7604 -31.8109 0
36.2245 -31.5362 0
36.8038 -27.0296 0
31.8811 -31.7051 0
32.3001 -27.1872 0
36.8038 -27.0296 0
37.3624 -22.3724 0
32.3001 -27.1872 0
32.6842 -22.5203 0
31.8811 -31.7051 0
32.3001 -27.1872 0
27.7604 -31.8109 0
28.0164 -27.2769 0
32.3001 -27.1872 0
32.6842 -22.5203 0
28.0164 -27.2769 0
28.2281 -22.5891 0
27.1529 -40.4157 0
27.4706 -36.1925 0
23.5041 -40.4843 0
23.655 -36.2492 0
27.4706 -36.1925 0
27.7604 -31.8109 0
23.655 -36.2492 0
23.7843 -31.8528 0
23.5041 -40.4843 0
23.655 -36.2492 0
19.9219 -40.4921 0
19.9059 -36.2474 0
23.655 -36.2492 0
23.7843 -31.8528 0
19.9059 -36.2474 0
19.8777 -31.8395 0
27.7604 -31.8109 0
28.0164 -27.2769 0
23.7843 -31.8528 0
23.8841 -27.3011 0
28.0164 -27.2769 0
28.2281 -22.5891 0
23.8841 -27.3011 0
23.9433 -22.5952 0
23.7843 -31.8528 0
23.8841 -27.3011 0
19.8777 -31.8395 0
19.8311 -27.2765 0
23.8841 -27.3011 0
23.9433 -22.5952 0
19.8311 -27.2765 0
19.76 -22.5669 0
37.3624 -22.3724 0
37.9203 -17.5529 0
32.6842 -22.5203 0
33.024 -17.6864 0
37.9203 -17.5529 0
38.5209 -12.4943 0
33.024 -17.6864 0
33.29 -12.6443 0
32.6842 -22.5203 0
33.024 -17.6864 0
28.2281 -22.5891 0
28.378 -17.7321 0
33.024 -17.6864 0
33.29 -12.6443 0
28.378 -17.7321 0
28.4292 -12.6402 0
38.5209 -12.4943 0
39.2266 -7.14433 0
33.29 -12.6443 0
33.3394 -7.08864 0
39.2266 -7.14433 0
39.6579 0 0
33.3394 -7.08864 0
33.4934 -1.31444 0
33.29 -12.6443 0
33.3394 -7.08864 0
28.4292 -12.6402 0
28.4156 -7.30341 0
33.3394 -7.08864 0
33.4934 -1.31444 0
28.4156 -7.30341 0
28.562 -2.24744 0
28.2281 -22.5891 0
28.378 -17.7321 0
23.9433 -22.5952 0
23.9477 -17.7267 0
28.378 -17.7321 0
28.4292 -12.6402 0
23.9477 -17.7267 0
23.9022 -12.6992 0
23.9433 -22.5952 0
23.9477 -17.7267 0
19.76 -22.5669 0
19.668 -17.7277 0
23.9477 -17.7267 0
23.9022 -12.6992 0
19.668 -17.7277 0
19.5953 -12.8158 0
28.4292 -12.6402 0
28.4156 -7.30341 0
23.9022 -12.6992 0
23.9109 -7.64634 0
28.4156 -7.30341 0
28.562 -2.24744 0
23.9109 -7.64634 0
24.0376 -2.90633 0
23.9022 -12.6992 0
23.9109 -7.64634 0
19.5953 -12.8158 0
19.5984 -7.96098 0
23.9109 -7.64634 0
24.0376 -2.90633 0
19.5984 -7.96098 0
19.6925 -3.39139 0
19.9219 -40.4921 0
19.9059 -36.2474 0
16.3398 -40.4438 0
16.1601 -36.1947 0
19.9059 -36.2474 0
19.8777 -31.8395 0
16.1601 -36.1947 0
15.9817 -31.7832 0
16.3398 -40.4438 0
16.1601 -36.1947 0
12.695 -40.3453 0
12.3608 -36.0991 0
16.1601 -36.1947 0
15.9817 -31.7832 0
12.3608 -36.0991 0
12.0459 -31.6938 0
19.8777 -31.8395 0
19.8311 -27.2765 0
15.9817 -31.7832 0
15.8038 -27.2213 0
19.8311 -27.2765 0
19.76 -22.5669 0
15.8038 -27.2213 0
15.6308 -22.5283 0
15.9817 -31.7832 0
15.8038 -27.2213 0
12.0459 -31.6938 0
11.756 -27.1458 0
15.8038 -27.2213 0
15.6308 -22.5283 0
11.756 -27.1458 0
11.5036 -22.4812 0
12.695 -40.3453 0
12.3608 -36.0991 0
8.92046 -40.2014 0
8.44414 -35.9646 0
12.3608 -36.0991 0
12.0459 -31.6938 0
8.44414 -35.9646 0
8.0064 -31.5732 0
8.92046 -40.2014 0
8.44414 -35.9646 0
4.90456 -40.0109 0
4.28658 -35.7895 0
8.44414 -35.9646 0
8.0064 -31.5732 0
4.28658 -35.7895 0
3.72948 -31.4173 0
12.0459 -31.6938 0
11.756 -27.1458 0
8.0064 -31.5732 0
7.61745 -27.0463 0
11.756 -27.1458 0
11.5036 -22.4812 0
7.61745 -27.0463 0
7.29205 -22.4128 0
8.0064 -31.5732 0
7.61745 -27.0463 0
3.72948 -31.4173 0
3.24443 -26.9155 0
7.61745 -27.0463 0
7.29205 -22.4128 0
3.24443 -26.9155 0
2.8467 -22.3132 0
19.76 -22.5669 0
19.668 -17.7277 0
15.6308 -22.5283 0
15.4816 -17.7418 0
19.668 -17.7277 0
19.5953 -12.8158 0
15.4816 -17.7418 0
15.3878 -12.9306 0
15.6308 -22.5283 0
15.4816 -17.7418 0
11.5036 -22.4812 0
11.3071 -17.7457 0
15.4816 -17.7418 0
15.3878 -12.9306 0
11.3071 -17.7457 0
11.1834 -13.0062 0
19.5953 -12.8158 0
19.5984 -7.96098 0
15.3878 -12.9306 0
15.3731 -8.20108 0
19.5984 -7.96098 0
19.6925 -3.39139 0
15.3731 -8.20108 0
15.4301 -3.72367 0
15.3878 -12.9306 0
15.3731 -8.20108 0
11.1834 -13.0062 0
11.1418 -8.35307 0
15.3731 -8.20108 0
15.4301 -3.72367 0
11.1418 -8.35307 0
11.1596 -3.89932 0
11.5036 -22.4812 0
11.3071 -17.7457 0
7.29205 -22.4128 0
7.04482 -17.717 0
11.3071 -17.7457 0
11.1834 -13.0062 0
7.04482 -17.717 0
6.8866 -13.0254 0
7.29205 -22.4128 0
7.04482 -17.717 0
2.8467 -22.3132 0
2.55891 -17.6543 0
7.04482 -17.717 0
6.8866 -13.0254 0
2.55891 -17.6543 0
2.40037 -13.0038 0
11.1834 -13.0062 0
11.1418 -8.35307 0
6.8866 -13.0254 0
6.81595 -8.41971 0
11.1418 -8.35307 0
11.1596 -3.89932 0
6.81595 -8.41971 0
6.8038 -3.94868 0
6.8866 -13.0254 0
6.81595 -8.41971 0
2.40037 -13.0038 0
2.3543 -8.43092 0
6.81595 -8.41971 0
6.8038 -3.94868 0
2.3543 -8.43092 0
2.3529 -3.95027 0
28.4987 -66.9236 0
29.4322 -64.3183 0
26.0967 -67.1993 0
26.7913 -64.5843 0
29.4322 -64.3183 0
30.3306 -61.4789 0
26.7913 -64.5843 0
27.4623 -61.7351 0
26.0967 -67.1993 0
26.7913 -64.5843 0
23.9161 -67.3914 0
24.3731 -64.7704 0
26.7913 -64.5843 0
27.4623 -61.7351 0
24.3731 -64.7704 0
24.8177 -61.9153 0
30.3306 -61.4789 0
31.194 -58.4161 0
27.4623 -61.7351 0
28.109 -58.6624 0
31.194 -58.4161 0
32.0221 -55.1398 0
28.109 -58.6624 0
28.7305 -55.376 0
27.4623 -61.7351 0
28.109 -58.6624 0
24.8177 -61.9153 0
25.2488 -58.8363 0
28.109 -58.6624 0
28.7305 -55.376 0
25.2488 -58.8363 0
25.6652 -55.543 0
23.9161 -67.3914 0
24.3731 -64.7704 0
21.9182 -67.4985 0
22.1343 -64.8746 0
24.3731 -64.7704 0
24.8177 -61.9153 0
22.1343 -64.8746 0
22.3483 -62.0172 0
21.9182 -67.4985 0
22.1343 -64.8746 0
19.9931 -67.5221 0
19.9708 -64.8978 0
22.1343 -64.8746 0
22.3483 -62.0172 0
19.9708 -64.8978 0
19.9553 -62.0413 0
24.8177 -61.9153 0
25.2488 -58.8363 0
22.3483 -62.0172 0
22.5591 -58.9356 0
25.2488 -58.8363 0
25.6652 -55.543 0
22.5591 -58.9356 0
22.7651 -55.6391 0
22.3483 -62.0172 0
22.5591 -58.9356 0
19.9553 -62.0413 0
19.9455 -58.9607 0
22.5591 -58.9356 0
22.7651 -55.6391 0
19.9455 -58.9607 0
19.9399 -55.6641 0
32.0221 -55.1398 0
32.8143 -51.6597 0
28.7305 -55.376 0
29.3261 -51.8854 0
32.8143 -51.6597 0
33.5701 -47.9852 0
29.3261 -51.8854 0
29.8949 -48.2001 0
28.7305 -55.376 0
29.3261 -51.8854 0
25.6652 -55.543 0
26.0654 -52.045 0
29.3261 -51.8854 0
29.8949 -48.2001 0
26.0654 -52.045 0
26.448 -48.3514 0
33.5701 -47.9852 0
34.2889 -44.1261 0
29.8949 -48.2001 0
30.4357 -44.3298 0
34.2889 -44.1261 0
34.9704 -40.092 0
30.4357 -44.3298 0
30.9477 -40.2841 0
29.8949 -48.2001 0
30.4357 -44.3298 0
26.448 -48.3514 0
26.8111 -44.4718 0
30.4357 -44.3298 0
30.9477 -40.2841 0
26.8111 -44.4718 0
27.1529 -40.4157 0
25.6652 -55.543 0
26.0654 -52.045 0
22.7651 -55.6391 0
22.9647 -52.1366 0
26.0654 -52.045 0
26.448 -48.3514 0
22.9647 -52.1366 0
23.1558 -48.4371 0
22.7651 -55.6391 0
22.9647 -52.1366 0
19.9399 -55.6641 0
19.9369 -52.1601 0
22.9647 -52.1366 0
23.1558 -48.4371 0
19.9369 -52.1601 0
19.9344 -48.4574 0
26.448 -48.3514 0
26.8111 -44.4718 0
23.1558 -48.4371 0
23.3365 -44.5499 0
26.8111 -44.4718 0
27.1529 -40.4157 0
23.3365 -44.5499 0
23.5041 -40.4843 0
23.1558 -48.4371 0
23.3365 -44.5499 0
19.9344 -48.4574 0
19.9303 -44.5651 0
23.3365 -44.5499 0
23.5041 -40.4843 0
19.9303 -44.5651 0
19.9219 -40.4921 0
19.9931 -67.5221 0
19.9708 -64.8978 0
18.049 -67.4657 0
17.7946 -64.8435 0
19.9708 -64.8978 0
19.9553 -62.0413 0
17.7946 -64.8435 0
17.5541 -61.9907 0
18.049 -67.4657 0
17.7946 -64.8435 0
16.0012 -67.334 0
15.5231 -64.7165 0
17.7946 -64.8435 0
17.5541 -61.9907 0
15.5231 -64.7165 0
15.0643 -61.8696 0
19.9553 -62.0413 0
19.9455 -58.9607 0
17.5541 -61.9907 0
17.3267 -58.9138 0
19.9455 -58.9607 0
19.9399 -55.6641 0
17.3267 -58.9138 0
17.1113 -55.6201 0
17.5541 -61.9907 0
17.3267 -58.9138 0
15.0643 -61.8696 0
14.6245 -58.7987 0
17.3267 -58.9138 0
17.1113 -55.6201 0
14.6245 -58.7987 0
14.2033 -55.5103 0
16.0012 -67.334 0
15.5231 -64.7165 0
13.7647 -67.1319 0
13.0703 -64.5214 0
15.5231 -64.7165 0
15.0643 -61.8696 0
13.0703 -64.5214 0
12.3997 -61.682 0
13.7647 -67.1319 0
13.0703 -64.5214 0
11.3437 -66.8582 0
10.4239 -64.2562 0
13.0703 -64.5214 0
12.3997 -61.682 0
10.4239 -64.2562 0
9.53206 -61.4257 0
15.0643 -61.8696 0
14.6245 -58.7987 0
12.3997 -61.682 0
11.7535 -58.6187 0
14.6245 -58.7987 0
14.2033 -55.5103 0
11.7535 -58.6187 0
11.1324 -55.3378 0
12.3997 -61.682 0
11.7535 -58.6187 0
9.53206 -61.4257 0
8.67047 -58.3718 0
11.7535 -58.6187 0
11.1324 -55.3378 0
8.67047 -58.3718 0
7.84139 -55.1008 0
19.9399 -55.6641 0
19.9369 -52.1601 0
17.1113 -55.6201 0
16.9065 -52.1176 0
19.9369 -52.1601 0
19.9344 -48.4574 0
16.9065 -52.1176 0
16.7109 -48.4147 0
17.1113 -55.6201 0
16.9065 -52.1176 0
14.2033 -55.5103 0
13.8002 -52.0121 0
16.9065 -52.1176 0
16.7109 -48.4147 0
13.8002 -52.0121 0
13.4148 -48.3123 0
19.9344 -48.4574 0
19.9303 -44.5651 0
16.7109 -48.4147 0
16.5226 -44.5203 0
19.9303 -44.5651 0
19.9219 -40.4921 0
16.5226 -44.5203 0
16.3398 -40.4438 0
16.7109 -48.4147 0
16.5226 -44.5203 0
13.4148 -48.3123 0
13.0465 -44.4201 0
16.5226 -44.5203 0
16.3398 -40.4438 0
13.0465 -44.4201 0
12.695 -40.3453 0
14.2033 -55.5103 0
13.8002 -52.0121 0
11.1324 -55.3378 0
10.5374 -51.8467 0
13.8002 -52.0121 0
13.4148 -48.3123 0
10.5374 -51.8467 0
9.96947 -48.1539 0
11.1324 -55.3378 0
10.5374 -51.8467 0
7.84139 -55.1008 0
7.04714 -51.6202 0
10.5374 -51.8467 0
9.96947 -48.1539 0
7.04714 -51.6202 0
6.29042 -47.9384 0
13.4148 -48.3123 0
13.0465 -44.4201 0
9.96947 -48.1539 0
9.42989 -44.2686 0
13.0465 -44.4201 0
12.695 -40.3453 0
9.42989 -44.2686 0
8.92046 -40.2014 0
9.96947 -48.1539 0
9.42989 -44.2686 0
6.29042 -47.9384 0
5.57467 -44.0649 0
9.42989 -44.2686 0
8.92046 -40.2014 0
5.57467 -44.0649 0
4.90456 -40.0109 0
19.829 -77.5906 0
21.0009 -77.4074 0
19.829 -77.9294 0
20.6597 -77.7444 0
21.0009 -77.4074 0
22.1611 -76.8627 0
20.6597 -77.7444 0
21.4846 -77.1944 0
19.829 -77.9294 0
20.6597 -77.7444 0
19.829 -78.1937 0
20.3803 -78.0049 0
20.6597 -77.7444 0
21.4846 -77.1944 0
20.3803 -78.0049 0
20.9242 -77.445 0
22.1611 -76.8627 0
23.2994 -75.9692 0
21.4846 -77.1944 0
22.2986 -76.2932 0
23.2994 -75.9692 0
24.4087 -74.7451 0
22.2986 -76.2932 0
23.0975 -75.06 0
21.4846 -77.1944 0
22.2986 -76.2932 0
20.9242 -77.445 0
21.4558 -76.531 0
22.2986 -76.2932 0
23.0975 -75.06 0
21.4558 -76.531 0
21.9731 -75.2852 0
19.829 -78.1937 0
20.3803 -78.0049 0
19.829 -78.4588 0
20.1601 -78.258 0
20.3803 -78.0049 0
20.9242 -77.445 0
20.1601 -78.258 0
20.4724 -77.6684 0
19.829 -78.4588 0
20.1601 -78.258 0
19.829 -78.7441 0
19.9579 -78.5211 0
20.1601 -78.258 0
20.4724 -77.6684 0
19.9579 -78.5211 0
20.0533 -77.8772 0
20.9242 -77.445 0
21.4558 -76.531 0
20.4724 -77.6684 0
20.7569 -76.7192 0
21.4558 -76.531 0
21.9731 -75.2852 0
20.7569 -76.7192 0
21.0148 -75.4426 0
20.4724 -77.6684 0
20.7569 -76.7192 0
20.0533 -77.8772 0
20.1012 -76.8664 0
20.7569 -76.7192 0
21.0148 -75.4426 0
20.1012 -76.8664 0
20.1077 -75.538 0
24.4087 -74.7451 0
25.4846 -73.2102 0
23.0975 -75.06 0
23.8784 -73.5154 0
25.4846 -73.2102 0
26.5252 -71.3837 0
23.8784 -73.5154 0
24.6394 -71.679 0
23.0975 -75.06 0
23.8784 -73.5154 0
21.9731 -75.2852 0
22.4768 -73.7298 0
23.8784 -73.5154 0
24.6394 -71.679 0
22.4768 -73.7298 0
22.968 -71.8847 0
26.5252 -71.3837 0
27.5298 -69.2831 0
24.6394 -71.679 0
25.3791 -69.5686 0
27.5298 -69.2831 0
28.4987 -66.9236 0
25.3791 -69.5686 0
26.0967 -67.1993 0
24.6394 -71.679 0
25.3791 -69.5686 0
22.968 -71.8847 0
23.4477 -69.767 0
25.3791 -69.5686 0
26.0967 -67.1993 0
23.4477 -69.767 0
23.9161 -67.3914 0
21.9731 -75.2852 0
22.4768 -73.7298 0
21.0148 -75.4426 0
21.2532 -73.8648 0
22.4768 -73.7298 0
22.968 -71.8847 0
21.2532 -73.8648 0
21.4798 -72.0052 0
21.0148 -75.4426 0
21.2532 -73.8648 0
20.1077 -75.538 0
20.0874 -73.924 0
21.2532 -73.8648 0
21.4798 -72.0052 0
20.0874 -73.924 0
20.0552 -72.0431 0
22.968 -71.8847 0
23.4477 -69.767 0
21.4798 -72.0052 0
21.7004 -69.8789 0
23.4477 -69.767 0
23.9161 -67.3914 0
21.7004 -69.8789 0
21.9182 -67.4985 0
21.4798 -72.0052 0
21.7004 -69.8789 0
20.0552 -72.0431 0
20.0219 -69.9064 0
21.7004 -69.8789 0
21.9182 -67.4985 0
20.0219 -69.9064 0
19.9931 -67.5221 0
19.829 -78.7441 0
19.9579 -78.5211 0
19.829 -79.0399 0
19.7491 -78.7779 0
19.9579 -78.5211 0
20.0533 -77.8772 0
19.7491 -78.7779 0
19.6155 -78.0484 0
19.829 -79.0399 0
19.7491 -78.7779 0
19.829 -79.3245 0
19.5018 -78.9957 0
19.7491 -78.7779 0
19.6155 -78.0484 0
19.5018 -78.9957 0
19.1082 -78.1354 0
20.0533 -77.8772 0
20.1012 -76.8664 0
19.6155 -78.0484 0
19.4155 -76.9508 0
20.1012 -76.8664 0
20.1077 -75.538 0
19.4155 -76.9508 0
19.1622 -75.5556 0
19.6155 -78.0484 0
19.4155 -76.9508 0
19.1082 -78.1354 0
18.6202 -76.9238 0
19.4155 -76.9508 0
19.1622 -75.5556 0
18.6202 -76.9238 0
18.0842 -75.4668 0
19.829 -79.3245 0
19.5018 -78.9957 0
19.829 -79.5708 0
19.1955 -79.099 0
19.5018 -78.9957 0
19.1082 -78.1354 0
19.1955 -79.099 0
18.417 -78.0275 0
19.829 -79.5708 0
19.1955 -79.099 0
19.829 -79.61 0
18.5195 -78.9632 0
19.1955 -79.099 0
18.417 -78.0275 0
18.5195 -78.9632 0
17.3532 -77.7123 0
19.1082 -78.1354 0
18.6202 -76.9238 0
18.417 -78.0275 0
17.5809 -76.7352 0
18.6202 -76.9238 0
18.0842 -75.4668 0
17.5809 -76.7352 0
16.7706 -75.2595 0
18.417 -78.0275 0
17.5809 -76.7352 0
17.3532 -77.7123 0
16.2884 -76.4313 0
17.5809 -76.7352 0
16.7706 -75.2595 0
16.2884 -76.4313 0
15.2571 -74.9579 0
20.1077 -75.538 0
20.0874 -73.924 0
19.1622 -75.5556 0
18.8817 -73.9002 0
20.0874 -73.924 0
20.0552 -72.0431 0
18.8817 -73.9002 0
18.5962 -71.9977 0
19.1622 -75.5556 0
18.8817 -73.9002 0
18.0842 -75.4668 0
17.5439 -73.7827 0
18.8817 -73.9002 0
18.5962 -71.9977 0
17.5439 -73.7827 0
17.0133 -71.8675 0
20.0552 -72.0431 0
20.0219 -69.9064 0
18.5962 -71.9977 0
18.3169 -69.8518 0
20.0219 -69.9064 0
19.9931 -67.5221 0
18.3169 -69.8518 0
18.049 -67.4657 0
18.5962 -71.9977 0
18.3169 -69.8518 0
17.0133 -71.8675 0
16.4983 -69.7182 0
18.3169 -69.8518 0
18.049 -67.4657 0
16.4983 -69.7182 0
16.0012 -67.334 0
18.0842 -75.4668 0
17.5439 -73.7827 0
16.7706 -75.2595 0
15.985 -73.5697 0
17.5439 -73.7827 0
17.0133 -71.8675 0
15.985 -73.5697 0
15.2223 -71.6554 0
16.7706 -75.2595 0
15.985 -73.5697 0
15.2571 -74.9579 0
14.2473 -73.2745 0
15.985 -73.5697 0
15.2223 -71.6554 0
14.2473 -73.2745 0
13.2576 -71.3667 0
17.0133 -71.8675 0
16.4983 -69.7182 0
15.2223 -71.6554 0
14.4822 -69.5101 0
16.4983 -69.7182 0
16.0012 -67.334 0
14.4822 -69.5101 0
13.7647 -67.1319 0
15.2223 -71.6554 0
14.4822 -69.5101 0
13.2576 -71.3667 0
12.2891 -69.2286 0
14.4822 -69.5101 0
13.7647 -67.1319 0
12.2891 -69.2286 0
11.3437 -66.8582 0
11.1592 -66.9236 0
12.1281 -69.2831 0
13.5612 -67.1993 0
14.2788 -69.5686 0
12.1281 -69.2831 0
13.1328 -71.3837 0
14.2788 -69.5686 0
15.0185 -71.679 0
13.5612 -67.1993 0
14.2788 -69.5686 0
15.7418 -67.3914 0
16.2102 -69.767 0
14.2788 -69.5686 0
15.0185 -71.679 0
16.2102 -69.767 0
16.6899 -71.8847 0
13.1328 -71.3837 0
14.1733 -73.2102 0
15.0185 -71.679 0
15.7795 -73.5154 0
14.1733 -73.2102 0
15.2492 -74.7451 0
15.7795 -73.5154 0
16.5604 -75.06 0
15.0185 -71.679 0
15.7795 -73.5154 0
16.6899 -71.8847 0
17.1811 -73.7298 0
15.7795 -73.5154 0
16.5604 -75.06 0
17.1811 -73.7298 0
17.6848 -75.2852 0
15.7418 -67.3914 0
16.2102 -69.767 0
17.7397 -67.4985 0
17.9575 -69.8789 0
16.2102 -69.767 0
16.6899 -71.8847 0
17.9575 -69.8789 0
18.1781 -72.0052 0
17.7397 -67.4985 0
17.9575 -69.8789 0
19.6648 -67.5221 0
19.636 -69.9064 0
17.9575 -69.8789 0
18.1781 -72.0052 0
19.636 -69.9064 0
19.6027 -72.0431 0
16.6899 -71.8847 0
17.1811 -73.7298 0
18.1781 -72.0052 0
18.4047 -73.8648 0
17.1811 -73.7298 0
17.6848 -75.2852 0
18.4047 -73.8648 0
18.6431 -75.4426 0
18.1781 -72.0052 0
18.4047 -73.8648 0
19.6027 -72.0431 0
19.5705 -73.924 0
18.4047 -73.8648 0
18.6431 -75.4426 0
19.5705 -73.924 0
19.5502 -75.538 0
15.2492 -74.7451 0
16.3585 -75.9692 0
16.5604 -75.06 0
17.3593 -76.2932 0
16.3585 -75.9692 0
17.4968 -76.8627 0
17.3593 -76.2932 0
18.1733 -77.1944 0
16.5604 -75.06 0
17.3593 -76.2932 0
17.6848 -75.2852 0
18.2022 -76.531 0
17.3593 -76.2932 0
18.1733 -77.1944 0
18.2022 -76.531 0
18.7337 -77.445 0
17.4968 -76.8627 0
18.657 -77.4074 0
18.1733 -77.1944 0
18.9982 -77.7444 0
18.657 -77.4074 0
19.829 -77.5906 0
18.9982 -77.7444 0
19.829 -77.9294 0
18.1733 -77.1944 0
18.9982 -77.7444 0
18.7337 -77.445 0
19.2776 -78.0049 0
18.9982 -77.7444 0
19.829 -77.9294 0
19.2776 -78.0049 0
19.829 -78.1937 0
17.6848 -75.2852 0
18.2022 -76.531 0
18.6431 -75.4426 0
18.901 -76.7192 0
18.2022 -76.531 0
18.7337 -77.445 0
18.901 -76.7192 0
19.1855 -77.6684 0
18.6431 -75.4426 0
18.901 -76.7192 0
19.5502 -75.538 0
19.5567 -76.8664 0
18.901 -76.7192 0
19.1855 -77.6684 0
19.5567 -76.8664 0
19.6046 -77.8772 0
18.7337 -77.445 0
19.2776 -78.0049 0
19.1855 -77.6684 0
19.4978 -78.258 0
19.2776 -78.0049 0
19.829 -78.1937 0
19.4978 -78.258 0
19.829 -78.4588 0
19.1855 -77.6684 0
19.4978 -78.258 0
19.6046 -77.8772 0
19.7 -78.5211 0
19.4978 -78.258 0
19.829 -78.4588 0
19.7 -78.5211 0
19.829 -78.7441 0
19.6648 -67.5221 0
19.636 -69.9064 0
21.6089 -67.4657 0
21.341 -69.8518 0
19.636 -69.9064 0
19.6027 -72.0431 0
21.341 -69.8518 0
21.0617 -71.9977 0
21.6089 -67.4657 0
21.341 -69.8518 0
23.6567 -67.334 0
23.1596 -69.7182 0
21.341 -69.8518 0
21.0617 -71.9977 0
23.1596 -69.7182 0
22.6446 -71.8675 0
19.6027 -72.0431 0
19.5705 -73.924 0
21.0617 -71.9977 0
20.7762 -73.9002 0
19.5705 -73.924 0
19.5502 -75.538 0
20.7762 -73.9002 0
20.4957 -75.5556 0
21.0617 -71.9977 0
20.7762 -73.9002 0
22.6446 -71.8675 0
22.114 -73.7827 0
20.7762 -73.9002 0
20.4957 -75.5556 0
22.114 -73.7827 0
21.5737 -75.4668 0
23.6567 -67.334 0
23.1596 -69.7182 0
25.8932 -67.1319 0
25.1757 -69.5101 0
23.1596 -69.7182 0
22.6446 -71.8675 0
25.1757 -69.5101 0
24.4356 -71.6554 0
25.8932 -67.1319 0
25.1757 -69.5101 0
28.3142 -66.8582 0
27.3689 -69.2286 0
25.1757 -69.5101 0
24.4356 -71.6554 0
27.3689 -69.2286 0
26.4003 -71.3667 0
22.6446 -71.8675 0
22.114 -73.7827 0
24.4356 -71.6554 0
23.6729 -73.5697 0
22.114 -73.7827 0
21.5737 -75.4668 0
23.6729 -73.5697 0
22.8873 -75.2595 0
24.4356 -71.6554 0
23.6729 -73.5697 0
26.4003 -71.3667 0
25.4106 -73.2745 0
23.6729 -73.5697 0
22.8873 -75.2595 0
25.4106 -73.2745 0
24.4008 -74.9579 0
19.5502 -75.538 0
19.5567 -76.8664 0
20.4957 -75.5556 0
20.2424 -76.9508 0
19.5567 -76.8664 0
19.6046 -77.8772 0
20.2424 -76.9508 0
20.0424 -78.0484 0
20.4957 -75.5556 0
20.2424 -76.9508 0
21.5737 -75.4668 0
21.0377 -76.9238 0
20.2424 -76.9508 0
20.0424 -78.0484 0
21.0377 -76.9238 0
20.5497 -78.1354 0
19.6046 -77.8772 0
19.7 -78.5211 0
20.0424 -78.0484 0
19.9088 -78.7779 0
19.7 -78.5211 0
19.829 -78.7441 0
19.9088 -78.7779 0
19.829 -79.0399 0
20.0424 -78.0484 0
19.9088 -78.7779 0
20.5497 -78.1354 0
20.1561 -78.9957 0
19.9088 -78.7779 0
19.829 -79.0399 0
20.1561 -78.9957 0
19.829 -79.3245 0
21.5737 -75.4668 0
21.0377 -76.9238 0
22.8873 -75.2595 0
22.077 -76.7352 0
21.0377 -76.9238 0
20.5497 -78.1354 0
22.077 -76.7352 0
21.241 -78.0275 0
22.8873 -75.2595 0
22.077 -76.7352 0
24.4008 -74.9579 0
23.3695 -76.4313 0
22.077 -76.7352 0
21.241 -78.0275 0
23.3695 -76.4313 0
22.3047 -77.7123 0
20.5497 -78.1354 0
20.1561 -78.9957 0
21.241 -78.0275 0
20.4624 -79.099 0
20.1561 -78.9957 0
19.829 -79.3245 0
20.4624 -79.099 0
19.829 -79.5708 0
21.241 -78.0275 0
20.4624 -79.099 0
22.3047 -77.7123 0
21.1385 -78.9632 0
20.4624 -79.099 0
19.829 -79.5708 0
21.1385 -78.9632 0
19.829 -79.61 0
4.68754 -40.092 0
5.36899 -44.1261 0
8.71017 -40.2841 0
9.22218 -44.3298 0
5.36899 -44.1261 0
6.08777 -47.9852 0
9.22218 -44.3298 0
9.76305 -48.2001 0
8.71017 -40.2841 0
9.22218 -44.3298 0
12.505 -40.4157 0
12.8468 -44.4718 0
9.22218 -44.3298 0
9.76305 -48.2001 0
12.8468 -44.4718 0
13.2099 -48.3514 0
6.08777 -47.9852 0
6.84359 -51.6597 0
9.76305 -48.2001 0
10.3318 -51.8854 0
6.84359 -51.6597 0
7.63584 -55.1398 0
10.3318 -51.8854 0
10.9274 -55.376 0
9.76305 -48.2001 0
10.3318 -51.8854 0
13.2099 -48.3514 0
13.5925 -52.045 0
10.3318 -51.8854 0
10.9274 -55.376 0
13.5925 -52.045 0
13.9927 -55.543 0
12.505 -40.4157 0
12.8468 -44.4718 0
16.1538 -40.4843 0
16.3214 -44.5499 0
12.8468 -44.4718 0
13.2099 -48.3514 0
16.3214 -44.5499 0
16.5021 -48.4371 0
16.1538 -40.4843 0