# vtk DataFile Version 3.0
#This file was generated by the deal.II library on 2020/9/2 at 8:39:09
ASCII
DATASET UNSTRUCTURED_GRID

POINTS 1536 double
5 0 0
5.125 0 0
5 0.125 0
5.125 0.125 0
5.125 0 0
5.25 0 0
5.125 0.125 0
5.25 0.125 0
5 0.125 0
5.125 0.125 0
5 0.25 0
5.125 0.25 0
5.125 0.125 0
5.25 0.125 0
5.125 0.25 0
5.25 0.25 0
5.25 0 0
5.375 0 0
5.25 0.125 0
5.375 0.125 0
5.375 0 0
5.5 0 0
5.375 0.125 0
5.5 0.125 0
5.25 0.125 0
5.375 0.125 0
5.25 0.25 0
5.375 0.25 0
5.375 0.125 0
5.5 0.125 0
5.375 0.25 0
5.5 0.25 0
5 0.25 0
5.125 0.25 0
5 0.375 0
5.125 0.375 0
5.125 0.25 0
5.25 0.25 0
5.125 0.375 0
5.25 0.375 0
5 0.375 0
5.125 0.375 0
5 0.5 0
5.125 0.5 0
5.125 0.375 0
5.25 0.375 0
5.125 0.5 0
5.25 0.5 0
5.25 0.25 0
5.375 0.25 0
5.25 0.375 0
5.375 0.375 0
5.375 0.25 0
5.5 0.25 0
5.375 0.375 0
5.5 0.375 0
5.25 0.375 0
5.375 0.375 0
5.25 0.5 0
5.375 0.5 0
5.375 0.375 0
5.5 0.375 0
5.375 0.5 0
5.5 0.5 0
5.5 0 0
5.625 0 0
5.5 0.125 0
5.625 0.125 0
5.625 0 0
5.75 0 0
5.625 0.125 0
5.75 0.125 0
5.5 0.125 0
5.625 0.125 0
5.5 0.25 0
5.625 0.25 0
5.625 0.125 0
5.75 0.125 0
5.625 0.25 0
5.75 0.25 0
5.75 0 0
5.875 0 0
5.75 0.125 0
5.875 0.125 0
5.875 0 0
6 0 0
5.875 0.125 0
6 0.125 0
5.75 0.125 0
5.875 0.125 0
5.75 0.25 0
5.875 0.25 0
5.875 0.125 0
6 0.125 0
5.875 0.25 0
6 0.25 0
5.5 0.25 0
5.625 0.25 0
5.5 0.375 0
5.625 0.375 0
5.625 0.25 0
5.75 0.25 0
5.625 0.375 0
5.75 0.375 0
5.5 0.375 0
5.625 0.375 0
5.5 0.5 0
5.625 0.5 0
5.625 0.375 0
5.75 0.375 0
5.625 0.5 0
5.75 0.5 0
5.75 0.25 0
5.875 0.25 0
5.75 0.375 0
5.875 0.375 0
5.875 0.25 0
6 0.25 0
5.875 0.375 0
6 0.375 0
5.75 0.375 0
5.875 0.375 0
5.75 0.5 0
5.875 0.5 0
5.875 0.375 0
6 0.375 0
5.875 0.5 0
6 0.5 0
5 0.5 0
5.125 0.5 0
5 0.625 0
5.125 0.625 0
5.125 0.5 0
5.25 0.5 0
5.125 0.625 0
5.25 0.625 0
5 0.625 0
5.125 0.625 0
5 0.75 0
5.125 0.75 0
5.125 0.625 0
5.25 0.625 0
5.125 0.75 0
5.25 0.75 0
5.25 0.5 0
5.375 0.5 0
5.25 0.625 0
5.375 0.625 0
5.375 0.5 0
5.5 0.5 0
5.375 0.625 0
5.5 0.625 0
5.25 0.625 0
5.375 0.625 0
5.25 0.75 0
5.375 0.75 0
5.375 0.625 0
5.5 0.625 0
5.375 0.75 0
5.5 0.75 0
5 0.75 0
5.125 0.75 0
5 0.875 0
5.125 0.875 0
5.125 0.75 0
5.25 0.75 0
5.125 0.875 0
5.25 0.875 0
5 0.875 0
5.125 0.875 0
5 1 0
5.125 1 0
5.125 0.875 0
5.25 0.875 0
5.125 1 0
5.25 1 0
5.25 0.75 0
5.375 0.75 0
5.25 0.875 0
5.375 0.875 0
5.375 0.75 0
5.5 0.75 0
5.375 0.875 0
5.5 0.875 0
5.25 0.875 0
5.375 0.875 0
5.25 1 0
5.375 1 0
5.375 0.875 0
5.5 0.875 0
5.375 1 0
5.5 1 0
5.5 0.5 0
5.625 0.5 0
5.5 0.625 0
5.625 0.625 0
5.625 0.5 0
5.75 0.5 0
5.625 0.625 0
5.75 0.625 0
5.5 0.625 0
5.625 0.625 0
5.5 0.75 0
5.625 0.75 0
5.625 0.625 0
5.75 0.625 0
5.625 0.75 0
5.75 0.75 0
5.75 0.5 0
5.875 0.5 0
5.75 0.625 0
5.875 0.625 0
5.875 0.5 0
6 0.5 0
5.875 0.625 0
6 0.625 0
5.75 0.625 0
5.875 0.625 0
5.75 0.75 0
5.875 0.75 0
5.875 0.625 0
6 0.625 0
5.875 0.75 0
6 0.75 0
5.5 0.75 0
5.625 0.75 0
5.5 0.875 0
5.625 0.875 0
5.625 0.75 0
5.75 0.75 0
5.625 0.875 0
5.75 0.875 0
5.5 0.875 0
5.625 0.875 0
5.5 1 0
5.625 1 0
5.625 0.875 0
5.75 0.875 0
5.625 1 0
5.75 1 0
5.75 0.75 0
5.875 0.75 0
5.75 0.875 0
5.875 0.875 0
5.875 0.75 0
6 0.75 0
5.875 0.875 0
6 0.875 0
5.75 0.875 0
5.875 0.875 0
5.75 1 0
5.875 1 0
5.875 0.875 0
6 0.875 0
5.875 1 0
6 1 0
4 0 0
4.125 0 0
4 0.125 0
4.125 0.125 0
4.125 0 0
4.25 0 0
4.125 0.125 0
4.25 0.125 0
4 0.125 0
4.125 0.125 0
4 0.25 0
4.125 0.25 0
4.125 0.125 0
4.25 0.125 0
4.125 0.25 0
4.25 0.25 0
4.25 0 0
4.375 0 0
4.25 0.125 0
4.375 0.125 0
4.375 0 0
4.5 0 0
4.375 0.125 0
4.5 0.125 0
4.25 0.125 0
4.375 0.125 0
4.25 0.25 0
4.375 0.25 0
4.375 0.125 0
4.5 0.125 0
4.375 0.25 0
4.5 0.25 0
4 0.25 0
4.125 0.25 0
4 0.375 0
4.125 0.375 0
4.125 0.25 0
4.25 0.25 0
4.125 0.375 0
4.25 0.375 0
4 0.375 0
4.125 0.375 0
4 0.5 0
4.125 0.5 0
4.125 0.375 0
4.25 0.375 0
4.125 0.5 0
4.25 0.5 0
4.25 0.25 0
4.375 0.25 0
4.25 0.375 0
4.375 0.375 0
4.375 0.25 0
4.5 0.25 0
4.375 0.375 0
4.5 0.375 0
4.25 0.375 0
4.375 0.375 0
4.25 0.5 0
4.375 0.5 0
4.375 0.375 0
4.5 0.375 0
4.375 0.5 0
4.5 0.5 0
4.5 0 0
4.625 0 0
4.5 0.125 0
4.625 0.125 0
4.625 0 0
4.75 0 0
4.625 0.125 0
4.75 0.125 0
4.5 0.125 0
4.625 0.125 0
4.5 0.25 0
4.625 0.25 0
4.625 0.125 0
4.75 0.125 0
4.625 0.25 0
4.75 0.25 0
4.75 0 0
4.875 0 0
4.75 0.125 0
4.875 0.125 0
4.875 0 0
5 0 0
4.875 0.125 0
5 0.125 0
4.75 0.125 0
4.875 0.125 0
4.75 0.25 0
4.875 0.25 0
4.875 0.125 0
5 0.125 0
4.875 0.25 0
5 0.25 0
4.5 0.25 0
4.625 0.25 0
4.5 0.375 0
4.625 0.375 0
4.625 0.25 0
4.75 0.25 0
4.625 0.375 0
4.75 0.375 0
4.5 0.375 0
4.625 0.375 0
4.5 0.5 0
4.625 0.5 0
4.625 0.375 0
4.75 0.375 0
4.625 0.5 0
4.75 0.5 0
4.75 0.25 0
4.875 0.25 0
4.75 0.375 0
4.875 0.375 0
4.875 0.25 0
5 0.25 0
4.875 0.375 0
5 0.375 0
4.75 0.375 0
4.875 0.375 0
4.75 0.5 0
4.875 0.5 0
4.875 0.375 0
5 0.375 0
4.875 0.5 0
5 0.5 0
4 0.5 0
4.125 0.5 0
4 0.625 0
4.125 0.625 0
4.125 0.5 0
4.25 0.5 0
4.125 0.625 0
4.25 0.625 0
4 0.625 0
4.125 0.625 0
4 0.75 0
4.125 0.75 0
4.125 0.625 0
4.25 0.625 0
4.125 0.75 0
4.25 0.75 0
4.25 0.5 0
4.375 0.5 0
4.25 0.625 0
4.375 0.625 0
4.375 0.5 0
4.5 0.5 0
4.375 0.625 0
4.5 0.625 0
4.25 0.625 0
4.375 0.625 0
4.25 0.75 0
4.375 0.75 0
4.375 0.625 0
4.5 0.625 0
4.375 0.75 0
4.5 0.75 0
4 0.75 0
4.125 0.75 0
4 0.875 0
4.125 0.875 0
4.125 0.75 0
4.25 0.75 0
4.125 0.875 0
4.25 0.875 0
4 0.875 0
4.125 0.875 0
4 1 0
4.125 1 0
4.125 0.875 0
4.25 0.875 0
4.125 1 0
4.25 1 0
4.25 0.75 0
4.375 0.75 0
4.25 0.875 0
4.375 0.875 0
4.375 0.75 0
4.5 0.75 0
4.375 0.875 0
4.5 0.875 0
4.25 0.875 0
4.375 0.875 0
4.25 1 0
4.375 1 0
4.375 0.875 0
4.5 0.875 0
4.375 1 0
4.5 1 0
4.5 0.5 0
4.625 0.5 0
4.5 0.625 0
4.625 0.625 0
4.625 0.5 0
4.75 0.5 0
4.625 0.625 0
4.75 0.625 0
4.5 0.625 0
4.625 0.625 0
4.5 0.75 0
4.625 0.75 0
4.625 0.625 0
4.75 0.625 0
4.625 0.75 0
4.75 0.75 0
4.75 0.5 0
4.875 0.5 0
4.75 0.625 0
4.875 0.625 0
4.875 0.5 0
5 0.5 0
4.875 0.625 0
5 0.625 0
4.75 0.625 0
4.875 0.625 0
4.75 0.75 0
4.875 0.75 0
4.875 0.625 0
5 0.625 0
4.875 0.75 0
5 0.75 0
4.5 0.75 0
4.625 0.75 0
4.5 0.875 0
4.625 0.875 0
4.625 0.75 0
4.75 0.75 0
4.625 0.875 0
4.75 0.875 0
4.5 0.875 0
4.625 0.875 0
4.5 1 0
4.625 1 0
4.625 0.875 0
4.75 0.875 0
4.625 1 0
4.75 1 0
4.75 0.75 0
4.875 0.75 0
4.75 0.875 0
4.875 0.875 0
4.875 0.75 0
5 0.75 0
4.875 0.875 0
5 0.875 0
4.75 0.875 0
4.875 0.875 0
4.75 1 0
4.875 1 0
4.875 0.875 0
5 0.875 0
4.875 1 0
5 1 0
3 0 0
3.125 0 0
3 0.125 0
3.125 0.125 0
3.125 0 0
3.25 0 0
3.125 0.125 0
3.25 0.125 0
3 0.125 0
3.125 0.125 0
3 0.25 0
3.125 0.25 0
3.125 0.125 0
3.25 0.125 0
3.125 0.25 0
3.25 0.25 0
3.25 0 0
3.375 0 0
3.25 0.125 0
3.375 0.125 0
3.375 0 0
3.5 0 0
3.375 0.125 0
3.5 0.125 0
3.25 0.125 0
3.375 0.125 0
3.25 0.25 0
3.375 0.25 0
3.375 0.125 0
3.5 0.125 0
3.375 0.25 0
3.5 0.25 0
3 0.25 0
3.125 0.25 0
3 0.375 0
3.125 0.375 0
3.125 0.25 0
3.25 0.25 0
3.125 0.375 0
3.25 0.375 0
3 0.375 0
3.125 0.375 0
3 0.5 0
3.125 0.5 0
3.125 0.375 0
3.25 0.375 0
3.125 0.5 0
3.25 0.5 0
3.25 0.25 0
3.375 0.25 0
3.25 0.375 0
3.375 0.375 0
3.375 0.25 0
3.5 0.25 0
3.375 0.375 0
3.5 0.375 0
3.25 0.375 0
3.375 0.375 0
3.25 0.5 0
3.375 0.5 0
3.375 0.375 0
3.5 0.375 0
3.375 0.5 0
3.5 0.5 0
3.5 0 0
3.625 0 0
3.5 0.125 0
3.625 0.125 0
3.625 0 0
3.75 0 0
3.625 0.125 0
3.75 0.125 0
3.5 0.125 0
3.625 0.125 0
3.5 0.25 0
3.625 0.25 0
3.625 0.125 0
3.75 0.125 0
3.625 0.25 0
3.75 0.25 0
3.75 0 0
3.875 0 0
3.75 0.125 0
3.875 0.125 0
3.875 0 0
4 0 0
3.875 0.125 0
4 0.125 0
3.75 0.125 0
3.875 0.125 0
3.75 0.25 0
3.875 0.25 0
3.875 0.125 0
4 0.125 0
3.875 0.25 0
4 0.25 0
3.5 0.25 0
3.625 0.25 0
3.5 0.375 0
3.625 0.375 0
3.625 0.25 0
3.75 0.25 0
3.625 0.375 0
3.75 0.375 0
3.5 0.375 0
3.625 0.375 0
3.5 0.5 0
3.625 0.5 0
3.625 0.375 0
3.75 0.375 0
3.625 0.5 0
3.75 0.5 0
3.75 0.25 0
3.875 0.25 0
3.75 0.375 0
3.875 0.375 0
3.875 0.25 0
4 0.25 0
3.875 0.375 0
4 0.375 0
3.75 0.375 0
3.875 0.375 0
3.75 0.5 0
3.875 0.5 0
3.875 0.375 0
4 0.375 0
3.875 0.5 0
4 0.5 0
3 0.5 0
3.125 0.5 0
3 0.625 0
3.125 0.625 0
3.125 0.5 0
3.25 0.5 0
3.125 0.625 0
3.25 0.625 0
3 0.625 0
3.125 0.625 0
3 0.75 0
3.125 0.75 0
3.125 0.625 0
3.25 0.625 0
3.125 0.75 0
3.25 0.75 0
3.25 0.5 0
3.375 0.5 0
3.25 0.625 0
3.375 0.625 0
3.375 0.5 0
3.5 0.5 0
3.375 0.625 0
3.5 0.625 0
3.25 0.625 0
3.375 0.625 0
3.25 0.75 0
3.375 0.75 0
3.375 0.625 0
3.5 0.625 0
3.375 0.75 0
3.5 0.75 0
3 0.75 0
3.125 0.75 0
3 0.875 0
3.125 0.875 0
3.125 0.75 0
3.25 0.75 0
3.125 0.875 0
3.25 0.875 0
3 0.875 0
3.125 0.875 0
3 1 0
3.125 1 0
3.125 0.875 0
3.25 0.875 0
3.125 1 0
3.25 1 0
3.25 0.75 0
3.375 0.75 0
3.25 0.875 0
3.375 0.875 0
3.375 0.75 0
3.5 0.75 0
3.375 0.875 0
3.5 0.875 0
3.25 0.875 0
3.375 0.875 0
3.25 1 0
3.375 1 0
3.375 0.875 0
3.5 0.875 0
3.375 1 0
3.5 1 0
3.5 0.5 0
3.625 0.5 0
3.5 0.625 0
3.625 0.625 0
3.625 0.5 0
3.75 0.5 0
3.625 0.625 0
3.75 0.625 0
3.5 0.625 0
3.625 0.625 0
3.5 0.75 0
3.625 0.75 0
3.625 0.625 0
3.75 0.625 0
3.625 0.75 0
3.75 0.75 0
3.75 0.5 0
3.875 0.5 0
3.75 0.625 0
3.875 0.625 0
3.875 0.5 0
4 0.5 0
3.875 0.625 0
4 0.625 0
3.75 0.625 0
3.875 0.625 0
3.75 0.75 0
3.875 0.75 0
3.875 0.625 0
4 0.625 0
3.875 0.75 0
4 0.75 0
3.5 0.75 0
3.625 0.75 0
3.5 0.875 0
3.625 0.875 0
3.625 0.75 0
3.75 0.75 0
3.625 0.875 0
3.75 0.875 0
3.5 0.875 0
3.625 0.875 0
3.5 1 0
3.625 1 0
3.625 0.875 0
3.75 0.875 0
3.625 1 0
3.75 1 0
3.75 0.75 0
3.875 0.75 0
3.75 0.875 0
3.875 0.875 0
3.875 0.75 0
4 0.75 0
3.875 0.875 0
4 0.875 0
3.75 0.875 0
3.875 0.875 0
3.75 1 0
3.875 1 0
3.875 0.875 0
4 0.875 0
3.875 1 0
4 1 0
2 0 0
2.125 0 0
2 0.125 0
2.125 0.125 0
2.125 0 0
2.25 0 0
2.125 0.125 0
2.25 0.125 0
2 0.125 0
2.125 0.125 0
2 0.25 0
2.125 0.25 0
2.125 0.125 0
2.25 0.125 0
2.125 0.25 0
2.25 0.25 0
2.25 0 0
2.375 0 0
2.25 0.125 0
2.375 0.125 0
2.375 0 0
2.5 0 0
2.375 0.125 0
2.5 0.125 0
2.25 0.125 0
2.375 0.125 0
2.25 0.25 0
2.375 0.25 0
2.375 0.125 0
2.5 0.125 0
2.375 0.25 0
2.5 0.25 0
2 0.25 0
2.125 0.25 0
2 0.375 0
2.125 0.375 0
2.125 0.25 0
2.25 0.25 0
2.125 0.375 0
2.25 0.375 0
2 0.375 0
2.125 0.375 0
2 0.5 0
2.125 0.5 0
2.125 0.375 0
2.25 0.375 0
2.125 0.5 0
2.25 0.5 0
2.25 0.25 0
2.375 0.25 0
2.25 0.375 0
2.375 0.375 0
2.375 0.25 0
[...]
POINT_DATA 1536
VECTORS displacements double
29.6688 -33.3024 0
30.1684 -29.7718 0
26.272 -33.4535 0
26.6459 -29.9096 0
30.1684 -29.7718 0
30.6262 -26.1249 0
26.6459 -29.9096 0
26.9853 -26.2495 0
26.272 -33.4535 0
26.6459 -29.9096 0
23.0013 -33.5574 0
23.2444 -30.0014 0
26.6459 -29.9096 0
26.9853 -26.2495 0
23.2444 -30.0014 0
23.4582 -26.3276 0
30.6262 -26.1249 0
31.0468 -22.3715 0
26.9853 -26.2495 0
27.2896 -22.4834 0
31.0468 -22.3715 0
31.4408 -18.5149 0
27.2896 -22.4834 0
27.5575 -18.6161 0
26.9853 -26.2495 0
27.2896 -22.4834 0
23.4582 -26.3276 0
23.6378 -22.5458 0
27.2896 -22.4834 0
27.5575 -18.6161 0
23.6378 -22.5458 0
23.7748 -18.6593 0
23.0013 -33.5574 0
23.2444 -30.0014 0
19.8129 -33.6131 0
19.9262 -30.0461 0
23.2444 -30.0014 0
23.4582 -26.3276 0
19.9262 -30.0461 0
20.0185 -26.359 0
19.8129 -33.6131 0
19.9262 -30.0461 0
16.6662 -33.6234 0
16.654 -30.0482 0
19.9262 -30.0461 0
20.0185 -26.359 0
16.654 -30.0482 0
16.6329 -26.3513 0
23.4582 -26.3276 0
23.6378 -22.5458 0
20.0185 -26.359 0
20.0839 -22.5615 0
23.6378 -22.5458 0
23.7748 -18.6593 0
20.0839 -22.5615 0
20.1158 -18.6596 0
20.0185 -26.359 0
20.0839 -22.5615 0
16.6329 -26.3513 0
16.5995 -22.5444 0
20.0839 -22.5615 0
20.1158 -18.6596 0
16.5995 -22.5444 0
16.5523 -18.6394 0
31.4408 -18.5149 0
31.8296 -14.5465 0
27.5575 -18.6161 0
27.7828 -14.6349 0
31.8296 -14.5465 0
32.2586 -10.3982 0
27.7828 -14.6349 0
27.9427 -10.4998 0
27.5575 -18.6161 0
27.7828 -14.6349 0
23.7748 -18.6593 0
23.8558 -14.6586 0
27.7828 -14.6349 0
27.9427 -10.4998 0
23.8558 -14.6586 0
23.8603 -10.4956 0
32.2586 -10.3982 0
32.7833 -5.98892 0
27.9427 -10.4998 0
27.9391 -5.95931 0
32.7833 -5.98892 0
33.1861 0 0
27.9391 -5.95931 0
28.062 -1.16127 0
27.9427 -10.4998 0
27.9391 -5.95931 0
23.8603 -10.4956 0
23.8516 -6.14523 0
27.9391 -5.95931 0
28.062 -1.16127 0
23.8516 -6.14523 0
23.9748 -1.95467 0
23.7748 -18.6593 0
23.8558 -14.6586 0
20.1158 -18.6596 0
20.109 -14.652 0
23.8558 -14.6586 0
23.8603 -10.4956 0
20.109 -14.652 0
20.0812 -10.5421 0
20.1158 -18.6596 0
20.109 -14.652 0
16.5523 -18.6394 0
16.4982 -14.6527 0
20.109 -14.652 0
20.0812 -10.5421 0
16.4982 -14.6527 0
16.4609 -10.6216 0
23.8603 -10.4956 0
23.8516 -6.14523 0
20.0812 -10.5421 0
20.0944 -6.40845 0
23.8516 -6.14523 0
23.9748 -1.95467 0
20.0944 -6.40845 0
20.1948 -2.48986 0
20.0812 -10.5421 0
20.0944 -6.40845 0
16.4609 -10.6216 0
16.4731 -6.63403 0
20.0944 -6.40845 0
20.1948 -2.48986 0
16.4731 -6.63403 0
16.5423 -2.84562 0
16.6662 -33.6234 0
16.654 -30.0482 0
13.5236 -33.5917 0
13.3907 -30.0134 0
16.654 -30.0482 0
16.6329 -26.3513 0
13.3907 -30.0134 0
13.2648 -26.3132 0
13.5236 -33.5917 0
13.3907 -30.0134 0
10.3464 -33.5209 0
10.097 -29.9458 0
13.3907 -30.0134 0
13.2648 -26.3132 0
10.097 -29.9458 0
9.87256 -26.2498 0
16.6329 -26.3513 0
16.5995 -22.5444 0
13.2648 -26.3132 0
13.1458 -22.5058 0
16.5995 -22.5444 0
16.5523 -18.6394 0
13.1458 -22.5058 0
13.0372 -18.6108 0
13.2648 -26.3132 0
13.1458 -22.5058 0
9.87256 -26.2498 0
9.67615 -22.4505 0
13.1458 -22.5058 0
13.0372 -18.6108 0
9.67615 -22.4505 0
9.51302 -18.5728 0
10.3464 -33.5209 0
10.097 -29.9458 0
7.08851 -33.4115 0
6.72424 -29.8464 0
10.097 -29.9458 0
9.87256 -26.2498 0
6.72424 -29.8464 0
6.40322 -26.1621 0
7.08851 -33.4115 0
6.72424 -29.8464 0
3.68889 -33.262 0
3.20599 -29.7129 0
6.72424 -29.8464 0
6.40322 -26.1621 0
3.20599 -29.7129 0
2.7845 -26.0473 0
9.87256 -26.2498 0
9.67615 -22.4505 0
6.40322 -26.1621 0
6.13146 -22.3778 0
9.67615 -22.4505 0
9.51302 -18.5728 0
6.13146 -22.3778 0
5.9156 -18.5207 0
6.40322 -26.1621 0
6.13146 -22.3778 0
2.7845 -26.0473 0
2.43471 -22.285 0
6.13146 -22.3778 0
5.9156 -18.5207 0
2.43471 -22.285 0
2.16798 -18.4535 0
16.5523 -18.6394 0
16.4982 -14.6527 0
13.0372 -18.6108 0
12.9487 -14.6576 0
16.4982 -14.6527 0
16.4609 -10.6216 0
12.9487 -14.6576 0
12.8968 -10.6936 0
13.0372 -18.6108 0
12.9487 -14.6576 0
9.51302 -18.5728 0
9.39069 -14.6522 0
12.9487 -14.6576 0
12.8968 -10.6936 0
9.39069 -14.6522 0
9.31708 -10.7371 0
16.4609 -10.6216 0
16.4731 -6.63403 0
12.8968 -10.6936 0
12.8946 -6.79285 0
16.4731 -6.63403 0
16.5423 -2.84562 0
12.8946 -6.79285 0
12.9318 -3.05679 0
12.8968 -10.6936 0
12.8946 -6.79285 0
9.31708 -10.7371 0
9.29437 -6.88499 0
12.8946 -6.79285 0
12.9318 -3.05679 0
9.29437 -6.88499 0
9.30427 -3.15352 0
9.51302 -18.5728 0
9.39069 -14.6522 0
5.9156 -18.5207 0
5.76087 -14.6279 0
9.39069 -14.6522 0
9.31708 -10.7371 0
5.76087 -14.6279 0
5.66758 -10.7465 0
5.9156 -18.5207 0
5.76087 -14.6279 0
2.16798 -18.4535 0
1.99262 -14.5889 0
5.76087 -14.6279 0
5.66758 -10.7465 0
1.99262 -14.5889 0
1.90571 -10.7346 0
9.31708 -10.7371 0
9.29437 -6.88499 0
5.66758 -10.7465 0
5.62794 -6.92304 0
9.29437 -6.88499 0
9.30427 -3.15352 0
5.62794 -6.92304 0
5.62105 -3.17699 0
5.66758 -10.7465 0
5.62794 -6.92304 0
1.90571 -10.7346 0
1.8836 -6.9296 0
5.62794 -6.92304 0
5.62105 -3.17699 0
1.8836 -6.9296 0
1.88378 -3.17687 0
24.2189 -56.0318 0
25.0295 -53.8223 0
22.1826 -56.2724 0
22.7888 -54.0532 0
25.0295 -53.8223 0
25.8053 -51.4133 0
22.7888 -54.0532 0
23.3701 -51.634 0
22.1826 -56.2724 0
22.7888 -54.0532 0
20.2829 -56.4416 0
20.684 -54.216 0
22.7888 -54.0532 0
23.3701 -51.634 0
20.684 -54.216 0
21.0699 -51.7903 0
25.8053 -51.4133 0
26.5455 -48.8139 0
23.3701 -51.634 0
23.9254 -49.0244 0
26.5455 -48.8139 0
27.2492 -46.0337 0
23.9254 -49.0244 0
24.4538 -46.2333 0
23.3701 -51.634 0
23.9254 -49.0244 0
21.0699 -51.7903 0
21.4397 -49.1736 0
23.9254 -49.0244 0
24.4538 -46.2333 0
21.4397 -49.1736 0
21.7922 -46.375 0
20.2829 -56.4416 0
20.684 -54.216 0
18.4724 -56.5389 0
18.6678 -54.3102 0
20.684 -54.216 0
21.0699 -51.7903 0
18.6678 -54.3102 0
18.8575 -51.8813 0
18.4724 -56.5389 0
18.6678 -54.3102 0
16.6999 -56.5656 0
16.6911 -54.3368 0
18.6678 -54.3102 0
18.8575 -51.8813 0
16.6911 -54.3368 0
16.6851 -51.908 0
21.0699 -51.7903 0
21.4397 -49.1736 0
18.8575 -51.8813 0
19.0406 -49.2611 0
21.4397 -49.1736 0
21.7922 -46.375 0
19.0406 -49.2611 0
19.2158 -46.4583 0
18.8575 -51.8813 0
19.0406 -49.2611 0
16.6851 -51.908 0
16.6815 -49.2875 0
19.0406 -49.2611 0
19.2158 -46.4583 0
16.6815 -49.2875 0
16.6794 -46.4837 0
27.2492 -46.0337 0
27.9149 -43.0821 0
24.4538 -46.2333 0
24.954 -43.2704 0
27.9149 -43.0821 0
28.5411 -39.9691 0
24.954 -43.2704 0
25.4247 -40.1456 0
24.4538 -46.2333 0
24.954 -43.2704 0
21.7922 -46.375 0
22.1261 -43.4039 0
24.954 -43.2704 0
25.4247 -40.1456 0
22.1261 -43.4039 0
22.44 -40.2701 0
28.5411 -39.9691 0
29.1262 -36.7054 0
25.4247 -40.1456 0
25.8645 -36.8695 0
29.1262 -36.7054 0
29.6688 -33.3024 0
25.8645 -36.8695 0
26.272 -33.4535 0
25.4247 -40.1456 0
25.8645 -36.8695 0
22.44 -40.2701 0
22.7324 -36.9842 0
25.8645 -36.8695 0
26.272 -33.4535 0
22.7324 -36.9842 0
23.0013 -33.5574 0
21.7922 -46.375 0
22.1261 -43.4039 0
19.2158 -46.4583 0
19.3822 -43.4821 0
22.1261 -43.4039 0
22.44 -40.2701 0
19.3822 -43.4821 0
19.5383 -40.3422 0
19.2158 -46.4583 0
19.3822 -43.4821 0
16.6794 -46.4837 0
16.6779 -43.5057 0
19.3822 -43.4821 0
19.5383 -40.3422 0
16.6779 -43.5057 0
16.6761 -40.3629 0
22.44 -40.2701 0
22.7324 -36.9842 0
19.5383 -40.3422 0
19.6826 -37.049 0
22.7324 -36.9842 0
23.0013 -33.5574 0
19.6826 -37.049 0
19.8129 -33.6131 0
19.5383 -40.3422 0
19.6826 -37.049 0
16.6761 -40.3629 0
16.6727 -37.0653 0
19.6826 -37.049 0
19.8129 -33.6131 0
16.6727 -37.0653 0
16.6662 -33.6234 0
16.6999 -56.5656 0
16.6911 -54.3368 0
14.9189 -56.5235 0
14.7086 -54.2974 0
16.6911 -54.3368 0
16.6851 -51.908 0
14.7086 -54.2974 0
14.5092 -51.8716 0
14.9189 -56.5235 0
14.7086 -54.2974 0
13.0863 -56.4148 0
12.6783 -54.194 0
14.7086 -54.2974 0
14.5092 -51.8716 0
12.6783 -54.194 0
12.2881 -51.7737 0
16.6851 -51.908 0
16.6815 -49.2875 0
14.5092 -51.8716 0
14.3203 -49.2539 0
16.6815 -49.2875 0
16.6794 -46.4837 0
14.3203 -49.2539 0
14.1416 -46.4524 0
14.5092 -51.8716 0
14.3203 -49.2539 0
12.2881 -51.7737 0
11.916 -49.1613 0
14.3203 -49.2539 0
14.1416 -46.4524 0
11.916 -49.1613 0
11.5623 -46.365 0
13.0863 -56.4148 0
12.6783 -54.194 0
11.1629 -56.2412 0
10.5595 -54.0276 0
12.6783 -54.194 0
12.2881 -51.7737 0
10.5595 -54.0276 0
9.98011 -51.6148 0
11.1629 -56.2412 0
10.5595 -54.0276 0
9.11874 -56.0023 0
8.3168 -53.7975 0
10.5595 -54.0276 0
9.98011 -51.6148 0
8.3168 -53.7975 0
7.54531 -51.3942 0
12.2881 -51.7737 0
11.916 -49.1613 0
9.98011 -51.6148 0
9.42593 -49.0101 0
11.916 -49.1613 0
11.5623 -46.365 0
9.42593 -49.0101 0
8.89828 -46.2216 0
9.98011 -51.6148 0
9.42593 -49.0101 0
7.54531 -51.3942 0
6.8065 -48.7996 0
9.42593 -49.0101 0
8.89828 -46.2216 0
6.8065 -48.7996 0
6.10257 -46.0217 0
16.6794 -46.4837 0
16.6779 -43.5057 0
14.1416 -46.4524 0
13.9729 -43.4759 0
16.6779 -43.5057 0
16.6761 -40.3629 0
13.9729 -43.4759 0
13.814 -40.3337 0
14.1416 -46.4524 0
13.9729 -43.4759 0
11.5623 -46.365 0
11.2277 -43.3933 0
13.9729 -43.4759 0
13.814 -40.3337 0
11.2277 -43.3933 0
10.913 -40.2555 0
16.6761 -40.3629 0
16.6727 -37.0653 0
13.814 -40.3337 0
13.6644 -37.0355 0
16.6727 -37.0653 0
16.6662 -33.6234 0
13.6644 -37.0355 0
13.5236 -33.5917 0
13.814 -40.3337 0
13.6644 -37.0355 0
10.913 -40.2555 0
10.6188 -36.9613 0
13.6644 -37.0355 0
13.5236 -33.5917 0
10.6188 -36.9613 0
10.3464 -33.5209 0
11.5623 -46.365 0
11.2277 -43.3933 0
8.89828 -46.2216 0
8.39867 -43.2581 0
11.2277 -43.3933 0
10.913 -40.2555 0
8.39867 -43.2581 0
7.92894 -40.1286 0
8.89828 -46.2216 0
8.39867 -43.2581 0
6.10257 -46.0217 0
5.43583 -43.0693 0
8.39867 -43.2581 0
7.92894 -40.1286 0
5.43583 -43.0693 0
4.80894 -39.9518 0
10.913 -40.2555 0
10.6188 -36.9613 0
7.92894 -40.1286 0
7.49128 -36.8429 0
10.6188 -36.9613 0
10.3464 -33.5209 0
7.49128 -36.8429 0
7.08851 -33.4115 0
7.92894 -40.1286 0
7.49128 -36.8429 0
4.80894 -39.9518 0
4.22518 -36.6791 0
7.49128 -36.8429 0
7.08851 -33.4115 0
4.22518 -36.6791 0
3.68889 -33.262 0
16.5931 -65.06 0
17.628 -64.9054 0
16.5931 -65.3616 0
17.341 -65.2053 0
17.628 -64.9054 0
18.6523 -64.4455 0
17.341 -65.2053 0
18.0828 -64.7404 0
16.5931 -65.3616 0
17.341 -65.2053 0
16.5931 -65.5935 0
17.0949 -65.4341 0
17.341 -65.2053 0
18.0828 -64.7404 0
17.0949 -65.4341 0
17.5898 -64.9613 0
18.6523 -64.4455 0
19.6567 -63.6906 0
18.0828 -64.7404 0
18.8131 -63.9782 0
19.6567 -63.6906 0
20.6344 -62.6557 0
18.8131 -63.9782 0
19.5277 -62.9345 0
18.0828 -64.7404 0
18.8131 -63.9782 0
17.5898 -64.9613 0
18.0728 -64.1886 0
18.8131 -63.9782 0
19.5277 -62.9345 0
18.0728 -64.1886 0
18.5421 -63.1344 0
16.5931 -65.5935 0
17.0949 -65.4341 0
16.5931 -65.7874 0
16.8754 -65.621 0
17.0949 -65.4341 0
17.5898 -64.9613 0
16.8754 -65.621 0
17.1459 -65.1305 0
16.5931 -65.7874 0
16.8754 -65.621 0
16.5931 -65.9625 0
16.6691 -65.7821 0
16.8754 -65.621 0
17.1459 -65.1305 0
16.6691 -65.7821 0
16.7244 -65.2579 0
17.5898 -64.9613 0
18.0728 -64.1886 0
17.1459 -65.1305 0
17.3984 -64.3367 0
18.0728 -64.1886 0
18.5421 -63.1344 0
17.3984 -64.3367 0
17.6331 -63.2638 0
17.1459 -65.1305 0
17.3984 -64.3367 0
16.7244 -65.2579 0
16.7507 -64.4269 0
17.3984 -64.3367 0
17.6331 -63.2638 0
16.7507 -64.4269 0
16.7535 -63.3247 0
20.6344 -62.6557 0
21.5811 -61.3571 0
19.5277 -62.9345 0
20.2237 -61.6266 0
21.5811 -61.3571 0
22.4945 -59.8109 0
20.2237 -61.6266 0
20.899 -60.0709 0
19.5277 -62.9345 0
20.2237 -61.6266 0
18.5421 -63.1344 0
18.9973 -61.8171 0
20.2237 -61.6266 0
20.899 -60.0709 0
18.9973 -61.8171 0
19.4392 -60.2534 0
22.4945 -59.8109 0
23.3739 -58.0317 0
20.899 -60.0709 0
21.5524 -58.2819 0
23.3739 -58.0317 0
24.2189 -56.0318 0
21.5524 -58.2819 0
22.1826 -56.2724 0
20.899 -60.0709 0
21.5524 -58.2819 0
19.4392 -60.2534 0
19.8678 -58.4576 0
21.5524 -58.2819 0
22.1826 -56.2724 0
19.8678 -58.4576 0
20.2829 -56.4416 0
18.5421 -63.1344 0
18.9973 -61.8171 0
17.6331 -63.2638 0
17.8543 -61.9328 0
18.9973 -61.8171 0
19.4392 -60.2534 0
17.8543 -61.9328 0
18.0663 -60.3602 0
17.6331 -63.2638 0
17.8543 -61.9328 0
16.7535 -63.3247 0
16.7427 -61.975 0
17.8543 -61.9328 0
18.0663 -60.3602 0
16.7427 -61.975 0
16.7271 -60.3925 0
19.4392 -60.2534 0
19.8678 -58.4576 0
18.0663 -60.3602 0
18.2719 -58.5587 0
19.8678 -58.4576 0
20.2829 -56.4416 0
18.2719 -58.5587 0
18.4724 -56.5389 0
18.0663 -60.3602 0
18.2719 -58.5587 0
16.7271 -60.3925 0
16.7121 -58.5868 0
18.2719 -58.5587 0
18.4724 -56.5389 0
16.7121 -58.5868 0
16.6999 -56.5656 0
16.5931 -65.9625 0
16.6691 -65.7821 0
16.5931 -66.1277 0
16.4636 -65.9205 0
16.6691 -65.7821 0
16.7244 -65.2579 0
16.4636 -65.9205 0
16.2985 -65.3377 0
16.5931 -66.1277 0
16.4636 -65.9205 0
16.5931 -66.2841 0
16.2412 -66.0271 0
16.4636 -65.9205 0
16.2985 -65.3377 0
16.2412 -66.0271 0
15.8385 -65.3472 0
16.7244 -65.2579 0
16.7507 -64.4269 0
16.2985 -65.3377 0
16.0917 -64.4507 0
16.7507 -64.4269 0
16.7535 -63.3247 0
16.0917 -64.4507 0
15.8569 -63.3106 0
16.2985 -65.3377 0
16.0917 -64.4507 0
15.8385 -65.3472 0
15.3758 -64.3846 0
16.0917 -64.4507 0
15.8569 -63.3106 0
15.3758 -64.3846 0
14.8917 -63.2094 0
16.5931 -66.2841 0
16.2412 -66.0271 0
16.5931 -66.4397 0
15.9917 -66.0701 0
16.2412 -66.0271 0
15.8385 -65.3472 0
15.9917 -66.0701 0
15.2765 -65.2252 0
16.5931 -66.4397 0
15.9917 -66.0701 0
16.5931 -66.5019 0
15.4611 -65.9591 0
15.9917 -66.0701 0
15.2765 -65.2252 0
15.4611 -65.9591 0
14.44 -64.9418 0
15.8385 -65.3472 0
15.3758 -64.3846 0
15.2765 -65.2252 0
14.5249 -64.203 0
15.3758 -64.3846 0
14.8917 -63.2094 0
14.5249 -64.203 0
13.8042 -63.0186 0
15.2765 -65.2252 0
14.5249 -64.203 0
14.44 -64.9418 0
13.4981 -63.9315 0
14.5249 -64.203 0
13.8042 -63.0186 0
13.4981 -63.9315 0
12.581 -62.7499 0
16.7535 -63.3247 0
16.7427 -61.975 0
15.8569 -63.3106 0
15.6128 -61.9411 0
16.7427 -61.975 0
16.7271 -60.3925 0
15.6128 -61.9411 0
15.3721 -60.3506 0
15.8569 -63.3106 0
15.6128 -61.9411 0
14.8917 -63.2094 0
14.416 -61.828 0
15.6128 -61.9411 0
15.3721 -60.3506 0
14.416 -61.828 0
13.9554 -60.2352 0
16.7271 -60.3925 0
16.7121 -58.5868 0
15.3721 -60.3506 0
15.1402 -58.5432 0
16.7121 -58.5868 0
16.6999 -56.5656 0
15.1402 -58.5432 0
14.9189 -56.5235 0
15.3721 -60.3506 0
15.1402 -58.5432 0
13.9554 -60.2352 0
13.5121 -58.4301 0
15.1402 -58.5432 0
14.9189 -56.5235 0
13.5121 -58.4301 0
13.0863 -56.4148 0
14.8917 -63.2094 0
14.416 -61.828 0
13.8042 -63.0186 0
13.1097 -61.6372 0
14.416 -61.828 0
13.9554 -60.2352 0
13.1097 -61.6372 0
12.4384 -60.0488 0
13.8042 -63.0186 0
13.1097 -61.6372 0
12.581 -62.7499 0
11.6825 -61.3753 0
13.1097 -61.6372 0
12.4384 -60.0488 0
11.6825 -61.3753 0
10.8042 -59.7938 0
13.9554 -60.2352 0
13.5121 -58.4301 0
12.4384 -60.0488 0
11.7894 -58.2496 0
13.5121 -58.4301 0
13.0863 -56.4148 0
11.7894 -58.2496 0
11.1629 -56.2412 0
12.4384 -60.0488 0
11.7894 -58.2496 0
10.8042 -59.7938 0
9.94874 -58.0024 0
11.7894 -58.2496 0
11.1629 -56.2412 0
9.94874 -58.0024 0
9.11874 -56.0023 0
8.96717 -56.0318 0
9.81222 -58.0317 0
11.0035 -56.2724 0
11.6337 -58.2819 0
9.81222 -58.0317 0
10.6916 -59.8109 0
11.6337 -58.2819 0
12.2871 -60.0709 0
11.0035 -56.2724 0
11.6337 -58.2819 0
12.9032 -56.4416 0
13.3183 -58.4576 0
11.6337 -58.2819 0
12.2871 -60.0709 0
13.3183 -58.4576 0
13.747 -60.2534 0
10.6916 -59.8109 0
11.605 -61.3571 0
12.2871 -60.0709 0
12.9624 -61.6266 0
11.605 -61.3571 0
12.5517 -62.6557 0
12.9624 -61.6266 0
13.6584 -62.9345 0
12.2871 -60.0709 0
12.9624 -61.6266 0
13.747 -60.2534 0
14.1888 -61.8171 0
12.9624 -61.6266 0
13.6584 -62.9345 0
14.1888 -61.8171 0
14.644 -63.1344 0
12.9032 -56.4416 0
13.3183 -58.4576 0
14.7137 -56.5389 0
14.9142 -58.5587 0
13.3183 -58.4576 0
13.747 -60.2534 0
14.9142 -58.5587 0
15.1198 -60.3602 0
14.7137 -56.5389 0
14.9142 -58.5587 0
16.4862 -56.5656 0
16.474 -58.5868 0
14.9142 -58.5587 0
15.1198 -60.3602 0
16.474 -58.5868 0
16.459 -60.3925 0
13.747 -60.2534 0
14.1888 -61.8171 0
15.1198 -60.3602 0
15.3318 -61.9328 0
14.1888 -61.8171 0
14.644 -63.1344 0
15.3318 -61.9328 0
15.553 -63.2638 0
15.1198 -60.3602 0
15.3318 -61.9328 0
16.459 -60.3925 0
16.4434 -61.975 0
15.3318 -61.9328 0
15.553 -63.2638 0
16.4434 -61.975 0
16.4326 -63.3247 0
12.5517 -62.6557 0
13.5294 -63.6906 0
13.6584 -62.9345 0
14.373 -63.9782 0
13.5294 -63.6906 0
14.5338 -64.4455 0
14.373 -63.9782 0
15.1033 -64.7404 0
13.6584 -62.9345 0
14.373 -63.9782 0
14.644 -63.1344 0
15.1133 -64.1886 0
14.373 -63.9782 0
15.1033 -64.7404 0
15.1133 -64.1886 0
15.5963 -64.9613 0
14.5338 -64.4455 0
15.5581 -64.9054 0
15.1033 -64.7404 0
15.8451 -65.2053 0
15.5581 -64.9054 0
16.5931 -65.06 0
15.8451 -65.2053 0
16.5931 -65.3616 0
15.1033 -64.7404 0
15.8451 -65.2053 0
15.5963 -64.9613 0
16.0912 -65.4341 0
15.8451 -65.2053 0
16.5931 -65.3616 0
16.0912 -65.4341 0
16.5931 -65.5935 0
14.644 -63.1344 0
15.1133 -64.1886 0
15.553 -63.2638 0
15.7877 -64.3367 0
15.1133 -64.1886 0
15.5963 -64.9613 0
15.7877 -64.3367 0
16.0402 -65.1305 0
15.553 -63.2638 0
15.7877 -64.3367 0
16.4326 -63.3247 0
16.4354 -64.4269 0
15.7877 -64.3367 0
16.0402 -65.1305 0
16.4354 -64.4269 0
16.4617 -65.2579 0
15.5963 -64.9613 0
16.0912 -65.4341 0
16.0402 -65.1305 0
16.3107 -65.621 0
16.0912 -65.4341 0
16.5931 -65.5935 0
16.3107 -65.621 0
16.5931 -65.7874 0
16.0402 -65.1305 0
16.3107 -65.621 0
16.4617 -65.2579 0
16.517 -65.7821 0
16.3107 -65.621 0
16.5931 -65.7874 0
16.517 -65.7821 0
16.5931 -65.9625 0
16.4862 -56.5656 0
16.474 -58.5868 0
18.2672 -56.5235 0
18.0459 -58.5432 0
16.474 -58.5868 0
16.459 -60.3925 0
18.0459 -58.5432 0
17.814 -60.3506 0
18.2672 -56.5235 0
18.0459 -58.5432 0
20.0998 -56.4148 0
19.674 -58.4301 0
18.0459 -58.5432 0
17.814 -60.3506 0
19.674 -58.4301 0
19.2307 -60.2352 0
16.459 -60.3925 0
16.4434 -61.975 0
17.814 -60.3506 0
17.5733 -61.9411 0
16.4434 -61.975 0
16.4326 -63.3247 0
17.5733 -61.9411 0
17.3292 -63.3106 0
17.814 -60.3506 0
17.5733 -61.9411 0
19.2307 -60.2352 0
18.7701 -61.828 0
17.5733 -61.9411 0
17.3292 -63.3106 0
18.7701 -61.828 0
18.2944 -63.2094 0
20.0998 -56.4148 0
19.674 -58.4301 0
22.0232 -56.2412 0
21.3967 -58.2496 0
19.674 -58.4301 0
19.2307 -60.2352 0
21.3967 -58.2496 0
20.7477 -60.0488 0
22.0232 -56.2412 0
21.3967 -58.2496 0
24.0674 -56.0023 0
23.2374 -58.0024 0
21.3967 -58.2496 0
20.7477 -60.0488 0
23.2374 -58.0024 0
22.3819 -59.7938 0
19.2307 -60.2352 0
18.7701 -61.828 0
20.7477 -60.0488 0
20.0764 -61.6372 0
18.7701 -61.828 0
18.2944 -63.2094 0
20.0764 -61.6372 0
19.3819 -63.0186 0
20.7477 -60.0488 0
20.0764 -61.6372 0
22.3819 -59.7938 0
21.5036 -61.3753 0
20.0764 -61.6372 0
19.3819 -63.0186 0
21.5036 -61.3753 0
20.6051 -62.7499 0
16.4326 -63.3247 0
16.4354 -64.4269 0
17.3292 -63.3106 0
17.0944 -64.4507 0
16.4354 -64.4269 0
16.4617 -65.2579 0
17.0944 -64.4507 0
16.8876 -65.3377 0
17.3292 -63.3106 0
17.0944 -64.4507 0
18.2944 -63.2094 0
17.8103 -64.3846 0
17.0944 -64.4507 0
16.8876 -65.3377 0
17.8103 -64.3846 0
17.3476 -65.3472 0
16.4617 -65.2579 0
16.517 -65.7821 0
16.8876 -65.3377 0
16.7225 -65.9205 0
16.517 -65.7821 0
16.5931 -65.9625 0
16.7225 -65.9205 0
16.5931 -66.1277 0
16.8876 -65.3377 0
16.7225 -65.9205 0
17.3476 -65.3472 0
16.9449 -66.0271 0
16.7225 -65.9205 0
16.5931 -66.1277 0
16.9449 -66.0271 0
16.5931 -66.2841 0
18.2944 -63.2094 0
17.8103 -64.3846 0
19.3819 -63.0186 0
18.6612 -64.203 0
17.8103 -64.3846 0
17.3476 -65.3472 0
18.6612 -64.203 0
17.9096 -65.2252 0
19.3819 -63.0186 0
18.6612 -64.203 0
20.6051 -62.7499 0
19.688 -63.9315 0
18.6612 -64.203 0
17.9096 -65.2252 0
19.688 -63.9315 0
18.7461 -64.9418 0
17.3476 -65.3472 0
16.9449 -66.0271 0
17.9096 -65.2252 0
17.1944 -66.0701 0
16.9449 -66.0271 0
16.5931 -66.2841 0
17.1944 -66.0701 0
16.5931 -66.4397 0
17.9096 -65.2252 0
17.1944 -66.0701 0
18.7461 -64.9418 0
17.725 -65.9591 0
17.1944 -66.0701 0
16.5931 -66.4397 0
17.725 -65.9591 0
16.5931 -66.5019 0
3.5173 -33.3024 0
4.0599 -36.7054 0
6.91411 -33.4535 0
7.32158 -36.8695 0
4.0599 -36.7054 0
4.64498 -39.9691 0
7.32158 -36.8695 0
7.76136 -40.1456 0
6.91411 -33.4535 0
7.32158 -36.8695 0
10.1848 -33.5574 0
10.4537 -36.9842 0
7.32158 -36.8695 0
7.76136 -40.1456 0
10.4537 -36.9842 0
10.7461 -40.2701 0
4.64498 -39.9691 0
5.27119 -43.0821 0
7.76136 -40.1456 0
8.23206 -43.2704 0
5.27119 -43.0821 0
5.93693 -46.0337 0
8.23206 -43.2704 0
8.73227 -46.2333 0
7.76136 -40.1456 0
8.23206 -43.2704 0
10.7461 -40.2701 0
11.06 -43.4039 0
8.23206 -43.2704 0
8.73227 -46.2333 0
11.06 -43.4039 0
11.3939 -46.375 0
10.1848 -33.5574 0
10.4537 -36.9842 0
13.3732 -33.6131 0
13.5035 -37.049 0
10.4537 -36.9842 0