# vtk DataFile Version 3.0
#This file was generated by the deal.II library on 2020/9/16 at 9:30:08
ASCII
DATASET UNSTRUCTURED_GRID

POINTS 6144 double
5 0 0
5.0625 0 0
5 0.0625 0
5.0625 0.0625 0
5.0625 0 0
5.125 0 0
5.0625 0.0625 0
5.125 0.0625 0
5 0.0625 0
5.0625 0.0625 0
5 0.125 0
5.0625 0.125 0
5.0625 0.0625 0
5.125 0.0625 0
5.0625 0.125 0
5.125 0.125 0
5.125 0 0
5.1875 0 0
5.125 0.0625 0
5.1875 0.0625 0
5.1875 0 0
5.25 0 0
5.1875 0.0625 0
5.25 0.0625 0
5.125 0.0625 0
5.1875 0.0625 0
5.125 0.125 0
5.1875 0.125 0
5.1875 0.0625 0
5.25 0.0625 0
5.1875 0.125 0
5.25 0.125 0
5 0.125 0
5.0625 0.125 0
5 0.1875 0
5.0625 0.1875 0
5.0625 0.125 0
5.125 0.125 0
5.0625 0.1875 0
5.125 0.1875 0
5 0.1875 0
5.0625 0.1875 0
5 0.25 0
5.0625 0.25 0
5.0625 0.1875 0
5.125 0.1875 0
5.0625 0.25 0
5.125 0.25 0
5.125 0.125 0
5.1875 0.125 0
5.125 0.1875 0
5.1875 0.1875 0
5.1875 0.125 0
5.25 0.125 0
5.1875 0.1875 0
5.25 0.1875 0
5.125 0.1875 0
5.1875 0.1875 0
5.125 0.25 0
5.1875 0.25 0
5.1875 0.1875 0
5.25 0.1875 0
5.1875 0.25 0
5.25 0.25 0
5.25 0 0
5.3125 0 0
5.25 0.0625 0
5.3125 0.0625 0
5.3125 0 0
5.375 0 0
5.3125 0.0625 0
5.375 0.0625 0
5.25 0.0625 0
5.3125 0.0625 0
5.25 0.125 0
5.3125 0.125 0
5.3125 0.0625 0
5.375 0.0625 0
5.3125 0.125 0
5.375 0.125 0
5.375 0 0
5.4375 0 0
5.375 0.0625 0
5.4375 0.0625 0
5.4375 0 0
5.5 0 0
5.4375 0.0625 0
5.5 0.0625 0
5.375 0.0625 0
5.4375 0.0625 0
5.375 0.125 0
5.4375 0.125 0
5.4375 0.0625 0
5.5 0.0625 0
5.4375 0.125 0
5.5 0.125 0
5.25 0.125 0
5.3125 0.125 0
5.25 0.1875 0
5.3125 0.1875 0
5.3125 0.125 0
5.375 0.125 0
5.3125 0.1875 0
5.375 0.1875 0
5.25 0.1875 0
5.3125 0.1875 0
5.25 0.25 0
5.3125 0.25 0
5.3125 0.1875 0
5.375 0.1875 0
5.3125 0.25 0
5.375 0.25 0
5.375 0.125 0
5.4375 0.125 0
5.375 0.1875 0
5.4375 0.1875 0
5.4375 0.125 0
5.5 0.125 0
5.4375 0.1875 0
5.5 0.1875 0
5.375 0.1875 0
5.4375 0.1875 0
5.375 0.25 0
5.4375 0.25 0
5.4375 0.1875 0
5.5 0.1875 0
5.4375 0.25 0
5.5 0.25 0
5 0.25 0
5.0625 0.25 0
5 0.3125 0
5.0625 0.3125 0
5.0625 0.25 0
5.125 0.25 0
5.0625 0.3125 0
5.125 0.3125 0
5 0.3125 0
5.0625 0.3125 0
5 0.375 0
5.0625 0.375 0
5.0625 0.3125 0
5.125 0.3125 0
5.0625 0.375 0
5.125 0.375 0
5.125 0.25 0
5.1875 0.25 0
5.125 0.3125 0
5.1875 0.3125 0
5.1875 0.25 0
5.25 0.25 0
5.1875 0.3125 0
5.25 0.3125 0
5.125 0.3125 0
5.1875 0.3125 0
5.125 0.375 0
5.1875 0.375 0
5.1875 0.3125 0
5.25 0.3125 0
5.1875 0.375 0
5.25 0.375 0
5 0.375 0
5.0625 0.375 0
5 0.4375 0
5.0625 0.4375 0
5.0625 0.375 0
5.125 0.375 0
5.0625 0.4375 0
5.125 0.4375 0
5 0.4375 0
5.0625 0.4375 0
5 0.5 0
5.0625 0.5 0
5.0625 0.4375 0
5.125 0.4375 0
5.0625 0.5 0
5.125 0.5 0
5.125 0.375 0
5.1875 0.375 0
5.125 0.4375 0
5.1875 0.4375 0
5.1875 0.375 0
5.25 0.375 0
5.1875 0.4375 0
5.25 0.4375 0
5.125 0.4375 0
5.1875 0.4375 0
5.125 0.5 0
5.1875 0.5 0
5.1875 0.4375 0
5.25 0.4375 0
5.1875 0.5 0
5.25 0.5 0
5.25 0.25 0
5.3125 0.25 0
5.25 0.3125 0
5.3125 0.3125 0
5.3125 0.25 0
5.375 0.25 0
5.3125 0.3125 0
5.375 0.3125 0
5.25 0.3125 0
5.3125 0.3125 0
5.25 0.375 0
5.3125 0.375 0
5.3125 0.3125 0
5.375 0.3125 0
5.3125 0.375 0
5.375 0.375 0
5.375 0.25 0
5.4375 0.25 0
5.375 0.3125 0
5.4375 0.3125 0
5.4375 0.25 0
5.5 0.25 0
5.4375 0.3125 0
5.5 0.3125 0
5.375 0.3125 0
5.4375 0.3125 0
5.375 0.375 0
5.4375 0.375 0
5.4375 0.3125 0
5.5 0.3125 0
5.4375 0.375 0
5.5 0.375 0
5.25 0.375 0
5.3125 0.375 0
5.25 0.4375 0
5.3125 0.4375 0
5.3125 0.375 0
5.375 0.375 0
5.3125 0.4375 0
5.375 0.4375 0
5.25 0.4375 0
5.3125 0.4375 0
5.25 0.5 0
5.3125 0.5 0
5.3125 0.4375 0
5.375 0.4375 0
5.3125 0.5 0
5.375 0.5 0
5.375 0.375 0
5.4375 0.375 0
5.375 0.4375 0
5.4375 0.4375 0
5.4375 0.375 0
5.5 0.375 0
5.4375 0.4375 0
5.5 0.4375 0
5.375 0.4375 0
5.4375 0.4375 0
5.375 0.5 0
5.4375 0.5 0
5.4375 0.4375 0
5.5 0.4375 0
5.4375 0.5 0
5.5 0.5 0
5.5 0 0
5.5625 0 0
5.5 0.0625 0
5.5625 0.0625 0
5.5625 0 0
5.625 0 0
5.5625 0.0625 0
5.625 0.0625 0
5.5 0.0625 0
5.5625 0.0625 0
5.5 0.125 0
5.5625 0.125 0
5.5625 0.0625 0
5.625 0.0625 0
5.5625 0.125 0
5.625 0.125 0
5.625 0 0
5.6875 0 0
5.625 0.0625 0
5.6875 0.0625 0
5.6875 0 0
5.75 0 0
5.6875 0.0625 0
5.75 0.0625 0
5.625 0.0625 0
5.6875 0.0625 0
5.625 0.125 0
5.6875 0.125 0
5.6875 0.0625 0
5.75 0.0625 0
5.6875 0.125 0
5.75 0.125 0
5.5 0.125 0
5.5625 0.125 0
5.5 0.1875 0
5.5625 0.1875 0
5.5625 0.125 0
5.625 0.125 0
5.5625 0.1875 0
5.625 0.1875 0
5.5 0.1875 0
5.5625 0.1875 0
5.5 0.25 0
5.5625 0.25 0
5.5625 0.1875 0
5.625 0.1875 0
5.5625 0.25 0
5.625 0.25 0
5.625 0.125 0
5.6875 0.125 0
5.625 0.1875 0
5.6875 0.1875 0
5.6875 0.125 0
5.75 0.125 0
5.6875 0.1875 0
5.75 0.1875 0
5.625 0.1875 0
5.6875 0.1875 0
5.625 0.25 0
5.6875 0.25 0
5.6875 0.1875 0
5.75 0.1875 0
5.6875 0.25 0
5.75 0.25 0
5.75 0 0
5.8125 0 0
5.75 0.0625 0
5.8125 0.0625 0
5.8125 0 0
5.875 0 0
5.8125 0.0625 0
5.875 0.0625 0
5.75 0.0625 0
5.8125 0.0625 0
5.75 0.125 0
5.8125 0.125 0
5.8125 0.0625 0
5.875 0.0625 0
5.8125 0.125 0
5.875 0.125 0
5.875 0 0
5.9375 0 0
5.875 0.0625 0
5.9375 0.0625 0
5.9375 0 0
6 0 0
5.9375 0.0625 0
6 0.0625 0
5.875 0.0625 0
5.9375 0.0625 0
5.875 0.125 0
5.9375 0.125 0
5.9375 0.0625 0
6 0.0625 0
5.9375 0.125 0
6 0.125 0
5.75 0.125 0
5.8125 0.125 0
5.75 0.1875 0
5.8125 0.1875 0
5.8125 0.125 0
5.875 0.125 0
5.8125 0.1875 0
5.875 0.1875 0
5.75 0.1875 0
5.8125 0.1875 0
5.75 0.25 0
5.8125 0.25 0
5.8125 0.1875 0
5.875 0.1875 0
5.8125 0.25 0
5.875 0.25 0
5.875 0.125 0
5.9375 0.125 0
5.875 0.1875 0
5.9375 0.1875 0
5.9375 0.125 0
6 0.125 0
5.9375 0.1875 0
6 0.1875 0
5.875 0.1875 0
5.9375 0.1875 0
5.875 0.25 0
5.9375 0.25 0
5.9375 0.1875 0
6 0.1875 0
5.9375 0.25 0
6 0.25 0
5.5 0.25 0
5.5625 0.25 0
5.5 0.3125 0
5.5625 0.3125 0
5.5625 0.25 0
5.625 0.25 0
5.5625 0.3125 0
5.625 0.3125 0
5.5 0.3125 0
5.5625 0.3125 0
5.5 0.375 0
5.5625 0.375 0
5.5625 0.3125 0
5.625 0.3125 0
5.5625 0.375 0
5.625 0.375 0
5.625 0.25 0
5.6875 0.25 0
5.625 0.3125 0
5.6875 0.3125 0
5.6875 0.25 0
5.75 0.25 0
5.6875 0.3125 0
5.75 0.3125 0
5.625 0.3125 0
5.6875 0.3125 0
5.625 0.375 0
5.6875 0.375 0
5.6875 0.3125 0
5.75 0.3125 0
5.6875 0.375 0
5.75 0.375 0
5.5 0.375 0
5.5625 0.375 0
5.5 0.4375 0
5.5625 0.4375 0
5.5625 0.375 0
5.625 0.375 0
5.5625 0.4375 0
5.625 0.4375 0
5.5 0.4375 0
5.5625 0.4375 0
5.5 0.5 0
5.5625 0.5 0
5.5625 0.4375 0
5.625 0.4375 0
5.5625 0.5 0
5.625 0.5 0
5.625 0.375 0
5.6875 0.375 0
5.625 0.4375 0
5.6875 0.4375 0
5.6875 0.375 0
5.75 0.375 0
5.6875 0.4375 0
5.75 0.4375 0
5.625 0.4375 0
5.6875 0.4375 0
5.625 0.5 0
5.6875 0.5 0
5.6875 0.4375 0
5.75 0.4375 0
5.6875 0.5 0
5.75 0.5 0
5.75 0.25 0
5.8125 0.25 0
5.75 0.3125 0
5.8125 0.3125 0
5.8125 0.25 0
5.875 0.25 0
5.8125 0.3125 0
5.875 0.3125 0
5.75 0.3125 0
5.8125 0.3125 0
5.75 0.375 0
5.8125 0.375 0
5.8125 0.3125 0
5.875 0.3125 0
5.8125 0.375 0
5.875 0.375 0
5.875 0.25 0
5.9375 0.25 0
5.875 0.3125 0
5.9375 0.3125 0
5.9375 0.25 0
6 0.25 0
5.9375 0.3125 0
6 0.3125 0
5.875 0.3125 0
5.9375 0.3125 0
5.875 0.375 0
5.9375 0.375 0
5.9375 0.3125 0
6 0.3125 0
5.9375 0.375 0
6 0.375 0
5.75 0.375 0
5.8125 0.375 0
5.75 0.4375 0
5.8125 0.4375 0
5.8125 0.375 0
5.875 0.375 0
5.8125 0.4375 0
5.875 0.4375 0
5.75 0.4375 0
5.8125 0.4375 0
5.75 0.5 0
5.8125 0.5 0
5.8125 0.4375 0
5.875 0.4375 0
5.8125 0.5 0
5.875 0.5 0
5.875 0.375 0
5.9375 0.375 0
5.875 0.4375 0
5.9375 0.4375 0
5.9375 0.375 0
6 0.375 0
5.9375 0.4375 0
6 0.4375 0
5.875 0.4375 0
5.9375 0.4375 0
5.875 0.5 0
5.9375 0.5 0
5.9375 0.4375 0
6 0.4375 0
5.9375 0.5 0
6 0.5 0
5 0.5 0
5.0625 0.5 0
5 0.5625 0
5.0625 0.5625 0
5.0625 0.5 0
5.125 0.5 0
5.0625 0.5625 0
5.125 0.5625 0
5 0.5625 0
5.0625 0.5625 0
5 0.625 0
5.0625 0.625 0
5.0625 0.5625 0
5.125 0.5625 0
5.0625 0.625 0
5.125 0.625 0
5.125 0.5 0
5.1875 0.5 0
5.125 0.5625 0
5.1875 0.5625 0
5.1875 0.5 0
5.25 0.5 0
5.1875 0.5625 0
5.25 0.5625 0
5.125 0.5625 0
5.1875 0.5625 0
5.125 0.625 0
5.1875 0.625 0
5.1875 0.5625 0
5.25 0.5625 0
5.1875 0.625 0
5.25 0.625 0
5 0.625 0
5.0625 0.625 0
5 0.6875 0
5.0625 0.6875 0
5.0625 0.625 0
5.125 0.625 0
5.0625 0.6875 0
5.125 0.6875 0
5 0.6875 0
5.0625 0.6875 0
5 0.75 0
5.0625 0.75 0
5.0625 0.6875 0
5.125 0.6875 0
5.0625 0.75 0
5.125 0.75 0
5.125 0.625 0
5.1875 0.625 0
5.125 0.6875 0
5.1875 0.6875 0
5.1875 0.625 0
5.25 0.625 0
5.1875 0.6875 0
5.25 0.6875 0
5.125 0.6875 0
5.1875 0.6875 0
5.125 0.75 0
5.1875 0.75 0
5.1875 0.6875 0
5.25 0.6875 0
5.1875 0.75 0
5.25 0.75 0
5.25 0.5 0
5.3125 0.5 0
5.25 0.5625 0
5.3125 0.5625 0
5.3125 0.5 0
5.375 0.5 0
5.3125 0.5625 0
5.375 0.5625 0
5.25 0.5625 0
5.3125 0.5625 0
5.25 0.625 0
5.3125 0.625 0
5.3125 0.5625 0
5.375 0.5625 0
5.3125 0.625 0
5.375 0.625 0
5.375 0.5 0
5.4375 0.5 0
5.375 0.5625 0
5.4375 0.5625 0
5.4375 0.5 0
5.5 0.5 0
5.4375 0.5625 0
5.5 0.5625 0
5.375 0.5625 0
5.4375 0.5625 0
5.375 0.625 0
5.4375 0.625 0
5.4375 0.5625 0
5.5 0.5625 0
5.4375 0.625 0
5.5 0.625 0
5.25 0.625 0
5.3125 0.625 0
5.25 0.6875 0
5.3125 0.6875 0
5.3125 0.625 0
5.375 0.625 0
5.3125 0.6875 0
5.375 0.6875 0
5.25 0.6875 0
5.3125 0.6875 0
5.25 0.75 0
5.3125 0.75 0
5.3125 0.6875 0
5.375 0.6875 0
5.3125 0.75 0
5.375 0.75 0
5.375 0.625 0
5.4375 0.625 0
5.375 0.6875 0
5.4375 0.6875 0
5.4375 0.625 0
5.5 0.625 0
5.4375 0.6875 0
5.5 0.6875 0
5.375 0.6875 0
5.4375 0.6875 0
5.375 0.75 0
5.4375 0.75 0
5.4375 0.6875 0
5.5 0.6875 0
5.4375 0.75 0
5.5 0.75 0
5 0.75 0
5.0625 0.75 0
5 0.8125 0
5.0625 0.8125 0
5.0625 0.75 0
5.125 0.75 0
5.0625 0.8125 0
5.125 0.8125 0
5 0.8125 0
5.0625 0.8125 0
5 0.875 0
5.0625 0.875 0
5.0625 0.8125 0
5.125 0.8125 0
5.0625 0.875 0
5.125 0.875 0
5.125 0.75 0
5.1875 0.75 0
5.125 0.8125 0
5.1875 0.8125 0
5.1875 0.75 0
5.25 0.75 0
5.1875 0.8125 0
5.25 0.8125 0
5.125 0.8125 0
5.1875 0.8125 0
5.125 0.875 0
5.1875 0.875 0
5.1875 0.8125 0
5.25 0.8125 0
5.1875 0.875 0
5.25 0.875 0
5 0.875 0
5.0625 0.875 0
5 0.9375 0
5.0625 0.9375 0
5.0625 0.875 0
5.125 0.875 0
5.0625 0.9375 0
5.125 0.9375 0
5 0.9375 0
5.0625 0.9375 0
5 1 0
5.0625 1 0
5.0625 0.9375 0
5.125 0.9375 0
5.0625 1 0
5.125 1 0
5.125 0.875 0
5.1875 0.875 0
5.125 0.9375 0
5.1875 0.9375 0
5.1875 0.875 0
5.25 0.875 0
5.1875 0.9375 0
5.25 0.9375 0
5.125 0.9375 0
5.1875 0.9375 0
5.125 1 0
5.1875 1 0
5.1875 0.9375 0
5.25 0.9375 0
5.1875 1 0
[...]
POINT_DATA 6144
VECTORS displacements double
33.1272 -39.1793 0
33.4432 -37.1098 0
31.0939 -39.2795 0
31.3737 -37.208 0
33.4432 -37.1098 0
33.7531 -35.0039 0
31.3737 -37.208 0
31.6474 -35.1 0
31.0939 -39.2795 0
31.3737 -37.208 0
29.351 -39.3904 0
29.583 -37.3069 0
31.3737 -37.208 0
31.6474 -35.1 0
29.583 -37.3069 0
29.8041 -35.1944 0
33.7531 -35.0039 0
34.0577 -32.86 0
31.6474 -35.1 0
31.9136 -32.9544 0
34.0577 -32.86 0
34.3558 -30.6772 0
31.9136 -32.9544 0
32.1741 -30.7689 0
31.6474 -35.1 0
31.9136 -32.9544 0
29.8041 -35.1944 0
30.0245 -33.0498 0
31.9136 -32.9544 0
32.1741 -30.7689 0
30.0245 -33.0498 0
30.2369 -30.8583 0
29.351 -39.3904 0
29.583 -37.3069 0
27.6165 -39.5323 0
27.8252 -37.4303 0
29.583 -37.3069 0
29.8041 -35.1944 0
27.8252 -37.4303 0
28.0215 -35.3053 0
27.6165 -39.5323 0
27.8252 -37.4303 0
25.8775 -39.6522 0
26.0773 -37.5536 0
27.8252 -37.4303 0
28.0215 -35.3053 0
26.0773 -37.5536 0
26.2392 -35.411 0
29.8041 -35.1944 0
30.0245 -33.0498 0
28.0215 -35.3053 0
28.1947 -33.1408 0
30.0245 -33.0498 0
30.2369 -30.8583 0
28.1947 -33.1408 0
28.3699 -30.9493 0
28.0215 -35.3053 0
28.1947 -33.1408 0
26.2392 -35.411 0
26.4015 -33.238 0
28.1947 -33.1408 0
28.3699 -30.9493 0
26.4015 -33.238 0
26.5329 -31.0314 0
34.3558 -30.6772 0
34.6479 -28.455 0
32.1741 -30.7689 0
32.4271 -28.5456 0
34.6479 -28.455 0
34.9308 -26.1965 0
32.4271 -28.5456 0
32.6786 -26.2831 0
32.1741 -30.7689 0
32.4271 -28.5456 0
30.2369 -30.8583 0
30.4483 -28.6332 0
32.4271 -28.5456 0
32.6786 -26.2831 0
30.4483 -28.6332 0
30.6524 -26.3649 0
34.9308 -26.1965 0
35.2097 -23.9035 0
32.6786 -26.2831 0
32.9202 -23.9914 0
35.2097 -23.9035 0
35.4771 -21.5817 0
32.9202 -23.9914 0
33.1665 -21.6621 0
32.6786 -26.2831 0
32.9202 -23.9914 0
30.6524 -26.3649 0
30.8565 -24.0669 0
32.9202 -23.9914 0
33.1665 -21.6621 0
30.8565 -24.0669 0
31.0577 -21.7321 0
30.2369 -30.8583 0
30.4483 -28.6332 0
28.3699 -30.9493 0
28.5323 -28.7115 0
30.4483 -28.6332 0
30.6524 -26.3649 0
28.5323 -28.7115 0
28.6971 -26.4475 0
28.3699 -30.9493 0
28.5323 -28.7115 0
26.5329 -31.0314 0
26.668 -28.7914 0
28.5323 -28.7115 0
28.6971 -26.4475 0
26.668 -28.7914 0
26.7875 -26.5147 0
30.6524 -26.3649 0
30.8565 -24.0669 0
28.6971 -26.4475 0
28.8602 -24.1318 0
30.8565 -24.0669 0
31.0577 -21.7321 0
28.8602 -24.1318 0
29.0171 -21.7998 0
28.6971 -26.4475 0
28.8602 -24.1318 0
26.7875 -26.5147 0
26.9076 -24.205 0
28.8602 -24.1318 0
29.0171 -21.7998 0
26.9076 -24.205 0
27.0222 -21.8496 0
25.8775 -39.6522 0
26.0773 -37.5536 0
24.1674 -39.7201 0
24.3238 -37.6352 0
26.0773 -37.5536 0
26.2392 -35.411 0
24.3238 -37.6352 0
24.4826 -35.4986 0
24.1674 -39.7201 0
24.3238 -37.6352 0
22.4987 -39.7514 0
22.6113 -37.6803 0
24.3238 -37.6352 0
24.4826 -35.4986 0
22.6113 -37.6803 0
22.715 -35.5535 0
26.2392 -35.411 0
26.4015 -33.238 0
24.4826 -35.4986 0
24.6001 -33.3205 0
26.4015 -33.238 0
26.5329 -31.0314 0
24.6001 -33.3205 0
24.7234 -31.1023 0
24.4826 -35.4986 0
24.6001 -33.3205 0
22.715 -35.5535 0
22.8306 -33.3721 0
24.6001 -33.3205 0
24.7234 -31.1023 0
22.8306 -33.3721 0
22.9063 -31.1604 0
22.4987 -39.7514 0
22.6113 -37.6803 0
20.8463 -39.7699 0
20.9192 -37.6938 0
22.6113 -37.6803 0
22.715 -35.5535 0
20.9192 -37.6938 0
20.9913 -35.5773 0
20.8463 -39.7699 0
20.9192 -37.6938 0
19.2216 -39.7612 0
19.2445 -37.6969 0
20.9192 -37.6938 0
20.9913 -35.5773 0
19.2445 -37.6969 0
19.2659 -35.5714 0
22.715 -35.5535 0
22.8306 -33.3721 0
20.9913 -35.5773 0
21.046 -33.4038 0
22.8306 -33.3721 0
22.9063 -31.1604 0
21.046 -33.4038 0
21.1127 -31.1789 0
20.9913 -35.5773 0
21.046 -33.4038 0
19.2659 -35.5714 0
19.2999 -33.4077 0
21.046 -33.4038 0
21.1127 -31.1789 0
19.2999 -33.4077 0
19.3085 -31.1896 0
26.5329 -31.0314 0
26.668 -28.7914 0
24.7234 -31.1023 0
24.8173 -28.8576 0
26.668 -28.7914 0
26.7875 -26.5147 0
24.8173 -28.8576 0
24.9115 -26.5731 0
24.7234 -31.1023 0
24.8173 -28.8576 0
22.9063 -31.1604 0
22.9839 -28.8986 0
24.8173 -28.8576 0
24.9115 -26.5731 0
22.9839 -28.8986 0
23.0395 -26.617 0
26.7875 -26.5147 0
26.9076 -24.205 0
24.9115 -26.5731 0
24.9914 -24.2575 0
26.9076 -24.205 0
27.0222 -21.8496 0
24.9914 -24.2575 0
25.0681 -21.9034 0
24.9115 -26.5731 0
24.9914 -24.2575 0
23.0395 -26.617 0
23.0905 -24.2909 0
24.9914 -24.2575 0
25.0681 -21.9034 0
23.0905 -24.2909 0
23.1392 -21.9418 0
22.9063 -31.1604 0
22.9839 -28.8986 0
21.1127 -31.1789 0
21.1495 -28.9319 0
22.9839 -28.8986 0
23.0395 -26.617 0
21.1495 -28.9319 0
21.1833 -26.6324 0
21.1127 -31.1789 0
21.1495 -28.9319 0
19.3085 -31.1896 0
19.332 -28.9247 0
21.1495 -28.9319 0
21.1833 -26.6324 0
19.332 -28.9247 0
19.337 -26.6461 0
23.0395 -26.617 0
23.0905 -24.2909 0
21.1833 -26.6324 0
21.2097 -24.3178 0
23.0905 -24.2909 0
23.1392 -21.9418 0
21.2097 -24.3178 0
21.2227 -21.9564 0
21.1833 -26.6324 0
21.2097 -24.3178 0
19.337 -26.6461 0
19.3324 -24.3127 0
21.2097 -24.3178 0
21.2227 -21.9564 0
19.3324 -24.3127 0
19.3406 -21.9593 0
35.4771 -21.5817 0
35.7555 -19.2283 0
33.1665 -21.6621 0
33.39 -19.3144 0
35.7555 -19.2283 0
36.0257 -16.828 0
33.39 -19.3144 0
33.6245 -16.9103 0
33.1665 -21.6621 0
33.39 -19.3144 0
31.0577 -21.7321 0
31.2506 -19.3665 0
33.39 -19.3144 0
33.6245 -16.9103 0
31.2506 -19.3665 0
31.4298 -16.9913 0
36.0257 -16.828 0
36.3011 -14.3938 0
33.6245 -16.9103 0
33.8564 -14.4756 0
36.3011 -14.3938 0
36.5992 -11.9062 0
33.8564 -14.4756 0
34.0741 -11.9959 0
33.6245 -16.9103 0
33.8564 -14.4756 0
31.4298 -16.9913 0
31.6123 -14.5249 0
33.8564 -14.4756 0
34.0741 -11.9959 0
31.6123 -14.5249 0
31.798 -12.0387 0
31.0577 -21.7321 0
31.2506 -19.3665 0
29.0171 -21.7998 0
29.1776 -19.4133 0
31.2506 -19.3665 0
31.4298 -16.9913 0
29.1776 -19.4133 0
29.3229 -17.0123 0
29.0171 -21.7998 0
29.1776 -19.4133 0
27.0222 -21.8496 0
27.1334 -19.4648 0
29.1776 -19.4133 0
29.3229 -17.0123 0
27.1334 -19.4648 0
27.2642 -17.0319 0
31.4298 -16.9913 0
31.6123 -14.5249 0
29.3229 -17.0123 0
29.4509 -14.6008 0
31.6123 -14.5249 0
31.798 -12.0387 0
29.4509 -14.6008 0
29.581 -12.0434 0
29.3229 -17.0123 0
29.4509 -14.6008 0
27.2642 -17.0319 0
27.3674 -14.5911 0
29.4509 -14.6008 0
29.581 -12.0434 0
27.3674 -14.5911 0
27.4426 -12.1256 0
36.5992 -11.9062 0
36.8917 -9.36353 0
34.0741 -11.9959 0
34.3052 -9.43509 0
36.8917 -9.36353 0
37.2649 -6.70769 0
34.3052 -9.43509 0
34.4706 -6.8212 0
34.0741 -11.9959 0
34.3052 -9.43509 0
31.798 -12.0387 0
31.9623 -9.46377 0
34.3052 -9.43509 0
34.4706 -6.8212 0
31.9623 -9.46377 0
32.0834 -6.80169 0
37.2649 -6.70769 0
37.6851 -3.89583 0
34.4706 -6.8212 0
34.54 -3.83121 0
37.6851 -3.89583 0
37.928 0 0
34.54 -3.83121 0
34.6549 -0.8459 0
34.4706 -6.8212 0
34.54 -3.83121 0
32.0834 -6.80169 0
32.0686 -3.98526 0
34.54 -3.83121 0
34.6549 -0.8459 0
32.0686 -3.98526 0
32.1568 -1.41865 0
31.798 -12.0387 0
31.9623 -9.46377 0
29.581 -12.0434 0
29.677 -9.49459 0
31.9623 -9.46377 0
32.0834 -6.80169 0
29.677 -9.49459 0
29.7264 -6.83664 0
29.581 -12.0434 0
29.677 -9.49459 0
27.4426 -12.1256 0
27.522 -9.51094 0
29.677 -9.49459 0
29.7264 -6.83664 0
27.522 -9.51094 0
27.5221 -6.98349 0
32.0834 -6.80169 0
32.0686 -3.98526 0
29.7264 -6.83664 0
29.7656 -4.25293 0
32.0686 -3.98526 0
32.1568 -1.41865 0
29.7656 -4.25293 0
29.8633 -1.80777 0
29.7264 -6.83664 0
29.7656 -4.25293 0
27.5221 -6.98349 0
27.5567 -4.51423 0
29.7656 -4.25293 0
29.8633 -1.80777 0
27.5567 -4.51423 0
27.6023 -2.09227 0
27.0222 -21.8496 0
27.1334 -19.4648 0
25.0681 -21.9034 0
25.1514 -19.5008 0
27.1334 -19.4648 0
27.2642 -17.0319 0
25.1514 -19.5008 0
25.2222 -17.0614 0
25.0681 -21.9034 0
25.1514 -19.5008 0
23.1392 -21.9418 0
23.1701 -19.5325 0
25.1514 -19.5008 0
25.2222 -17.0614 0
23.1701 -19.5325 0
23.2366 -17.0747 0
27.2642 -17.0319 0
27.3674 -14.5911 0
25.2222 -17.0614 0
25.3074 -14.5915 0
27.3674 -14.5911 0
27.4426 -12.1256 0
25.3074 -14.5915 0
25.368 -12.1171 0
25.2222 -17.0614 0
25.3074 -14.5915 0
23.2366 -17.0747 0
23.2819 -14.6105 0
25.3074 -14.5915 0
25.368 -12.1171 0
23.2819 -14.6105 0
23.311 -12.1325 0
23.1392 -21.9418 0
23.1701 -19.5325 0
21.2227 -21.9564 0
21.2758 -19.5263 0
23.1701 -19.5325 0
23.2366 -17.0747 0
21.2758 -19.5263 0
21.2582 -17.135 0
21.2227 -21.9564 0
21.2758 -19.5263 0
19.3406 -21.9593 0
19.2974 -19.5472 0
21.2758 -19.5263 0
21.2582 -17.135 0
19.2974 -19.5472 0
19.3784 -17.0781 0
23.2366 -17.0747 0
23.2819 -14.6105 0
21.2582 -17.135 0
21.3325 -14.6203 0
23.2819 -14.6105 0
23.311 -12.1325 0
21.3325 -14.6203 0
21.29 -12.2217 0
21.2582 -17.135 0
21.3325 -14.6203 0
19.3784 -17.0781 0
19.3178 -14.6804 0
21.3325 -14.6203 0
21.29 -12.2217 0
19.3178 -14.6804 0
19.2653 -12.3012 0
27.4426 -12.1256 0
27.522 -9.51094 0
25.368 -12.1171 0
25.3821 -9.6033 0
27.522 -9.51094 0
27.5221 -6.98349 0
25.3821 -9.6033 0
25.3913 -7.15358 0
25.368 -12.1171 0
25.3821 -9.6033 0
23.311 -12.1325 0
23.2983 -9.72829 0
25.3821 -9.6033 0
25.3913 -7.15358 0
23.2983 -9.72829 0
23.3024 -7.32447 0
27.5221 -6.98349 0
27.5567 -4.51423 0
25.3913 -7.15358 0
25.4286 -4.75094 0
27.5567 -4.51423 0
27.6023 -2.09227 0
25.4286 -4.75094 0
25.4383 -2.35189 0
25.3913 -7.15358 0
25.4286 -4.75094 0
23.3024 -7.32447 0
23.3034 -4.93137 0
25.4286 -4.75094 0
25.4383 -2.35189 0
23.3034 -4.93137 0
23.3626 -2.66925 0
23.311 -12.1325 0
23.2983 -9.72829 0
21.29 -12.2217 0
21.2547 -9.83974 0
23.2983 -9.72829 0
23.3024 -7.32447 0
21.2547 -9.83974 0
21.2315 -7.46673 0
21.29 -12.2217 0
21.2547 -9.83974 0
19.2653 -12.3012 0
19.2294 -9.94371 0
21.2547 -9.83974 0
21.2315 -7.46673 0
19.2294 -9.94371 0
19.2044 -7.59756 0
23.3024 -7.32447 0
23.3034 -4.93137 0
21.2315 -7.46673 0
21.2434 -5.12539 0
23.3034 -4.93137 0
23.3626 -2.66925 0
21.2434 -5.12539 0
21.3064 -2.95091 0
21.2315 -7.46673 0
21.2434 -5.12539 0
19.2044 -7.59756 0
19.2204 -5.31484 0
21.2434 -5.12539 0
21.3064 -2.95091 0
19.2204 -5.31484 0
19.2761 -3.18101 0
19.2216 -39.7612 0
19.2445 -37.6969 0
17.5928 -39.7358 0
17.5791 -37.6708 0
19.2445 -37.6969 0
19.2659 -35.5714 0
17.5791 -37.6708 0
17.5592 -35.5597 0
17.5928 -39.7358 0
17.5791 -37.6708 0
15.9735 -39.6907 0
15.9001 -37.628 0
17.5791 -37.6708 0
17.5592 -35.5597 0
15.9001 -37.628 0
15.8431 -35.5139 0
19.2659 -35.5714 0
19.2999 -33.4077 0
17.5592 -35.5597 0
17.5291 -33.3809 0
19.2999 -33.4077 0
19.3085 -31.1896 0
17.5291 -33.3809 0
17.5282 -31.1757 0
17.5592 -35.5597 0
17.5291 -33.3809 0
15.8431 -35.5139 0
15.7844 -33.355 0
17.5291 -33.3809 0
17.5282 -31.1757 0
15.7844 -33.355 0
15.7041 -31.1298 0
15.9735 -39.6907 0
15.9001 -37.628 0
14.3225 -39.6241 0
14.2206 -37.5665 0
15.9001 -37.628 0
15.8431 -35.5139 0
14.2206 -37.5665 0
14.1019 -35.4517 0
14.3225 -39.6241 0
14.2206 -37.5665 0
12.6477 -39.5431 0
12.492 -37.4787 0
14.2206 -37.5665 0
14.1019 -35.4517 0
12.492 -37.4787 0
12.3558 -35.3747 0
15.8431 -35.5139 0
15.7844 -33.355 0
14.1019 -35.4517 0
14.0091 -33.2918 0
15.7844 -33.355 0
15.7041 -31.1298 0
14.0091 -33.2918 0
13.9184 -31.0871 0
14.1019 -35.4517 0
14.0091 -33.2918 0
12.3558 -35.3747 0
12.1952 -33.2119 0
14.0091 -33.2918 0
13.9184 -31.0871 0
12.1952 -33.2119 0
12.0708 -31.0079 0
19.3085 -31.1896 0
19.332 -28.9247 0
17.5282 -31.1757 0
17.4989 -28.9143 0
19.332 -28.9247 0
19.337 -26.6461 0
17.4989 -28.9143 0
17.4854 -26.6141 0
17.5282 -31.1757 0
17.4989 -28.9143 0
15.7041 -31.1298 0
15.6755 -28.8815 0
17.4989 -28.9143 0
17.4854 -26.6141 0
15.6755 -28.8815 0
15.6198 -26.5786 0
19.337 -26.6461 0
19.3324 -24.3127 0
17.4854 -26.6141 0
17.4666 -24.306 0
19.3324 -24.3127 0
19.3406 -21.9593 0
17.4666 -24.306 0
17.433 -21.9343 0
17.4854 -26.6141 0
17.4666 -24.306 0
15.6198 -26.5786 0
15.5831 -24.2587 0
17.4666 -24.306 0
17.433 -21.9343 0
15.5831 -24.2587 0
15.5344 -21.8929 0
15.7041 -31.1298 0
15.6755 -28.8815 0
13.9184 -31.0871 0
13.7849 -28.8235 0
15.6755 -28.8815 0
15.6198 -26.5786 0
13.7849 -28.8235 0
13.73 -26.5248 0
13.9184 -31.0871 0
13.7849 -28.8235 0
12.0708 -31.0079 0
11.9542 -28.7612 0
13.7849 -28.8235 0
13.73 -26.5248 0
11.9542 -28.7612 0
11.7998 -26.4983 0
15.6198 -26.5786 0
15.5831 -24.2587 0
13.73 -26.5248 0
13.6441 -24.2295 0
15.5831 -24.2587 0
15.5344 -21.8929 0
13.6441 -24.2295 0
13.5188 -21.8927 0
13.73 -26.5248 0
13.6441 -24.2295 0
11.7998 -26.4983 0
11.6454 -24.21 0
13.6441 -24.2295 0
13.5188 -21.8927 0
11.6454 -24.21 0
11.5105 -21.8956 0
12.6477 -39.5431 0
12.492 -37.4787 0
10.9259 -39.4422 0
10.7294 -37.3809 0
12.492 -37.4787 0
12.3558 -35.3747 0
10.7294 -37.3809 0
10.5383 -35.2709 0
10.9259 -39.4422 0
10.7294 -37.3809 0
9.13599 -39.3345 0
8.89903 -37.2801 0
10.7294 -37.3809 0
10.5383 -35.2709 0
8.89903 -37.2801 0
8.66207 -35.1868 0
12.3558 -35.3747 0
12.1952 -33.2119 0
10.5383 -35.2709 0
10.3638 -33.1207 0
12.1952 -33.2119 0
12.0708 -31.0079 0
10.3638 -33.1207 0
10.1746 -30.9392 0
10.5383 -35.2709 0
10.3638 -33.1207 0
8.66207 -35.1868 0
8.43043 -33.053 0
10.3638 -33.1207 0
10.1746 -30.9392 0
8.43043 -33.053 0
8.21427 -30.8798 0
9.13599 -39.3345 0
8.89903 -37.2801 0
7.24187 -39.243 0
6.97296 -37.1916 0
8.89903 -37.2801 0
8.66207 -35.1868 0
6.97296 -37.1916 0
6.7108 -35.1041 0
7.24187 -39.243 0
6.97296 -37.1916 0
5.26934 -39.1473 0
4.98638 -37.1007 0
6.97296 -37.1916 0
6.7108 -35.1041 0
4.98638 -37.1007 0
4.72636 -35.0199 0
8.66207 -35.1868 0
8.43043 -33.053 0
6.7108 -35.1041 0
6.45763 -32.9845 0
8.43043 -33.053 0
8.21427 -30.8798 0
6.45763 -32.9845 0
6.22384 -30.8137 0
6.7108 -35.1041 0
6.45763 -32.9845 0
4.72636 -35.0199 0
4.51647 -32.9478 0
6.45763 -32.9845 0
6.22384 -30.8137 0
4.51647 -32.9478 0
4.26455 -30.7823 0
12.0708 -31.0079 0
11.9542 -28.7612 0
10.1746 -30.9392 0
9.9859 -28.7229 0
11.9542 -28.7612 0
11.7998 -26.4983 0
9.9859 -28.7229 0
9.81342 -26.4679 0
10.1746 -30.9392 0
9.9859 -28.7229 0
8.21427 -30.8798 0
8.00242 -28.6792 0
9.9859 -28.7229 0
9.81342 -26.4679 0
8.00242 -28.6792 0
7.8072 -26.4297 0
11.7998 -26.4983 0
11.6454 -24.21 0
9.81342 -26.4679 0
9.64437 -24.1862 0
11.6454 -24.21 0
11.5105 -21.8956 0
9.64437 -24.1862 0
9.51301 -21.906 0
9.81342 -26.4679 0
9.64437 -24.1862 0
7.8072 -26.4297 0
7.66314 -24.1879 0
9.64437 -24.1862 0
9.51301 -21.906 0
7.66314 -24.1879 0
7.50462 -21.8957 0
8.21427 -30.8798 0
8.00242 -28.6792 0
6.22384 -30.8137 0
6.04751 -28.6561 0
8.00242 -28.6792 0
7.8072 -26.4297 0
6.04751 -28.6561 0
5.85195 -26.4239 0
6.22384 -30.8137 0
6.04751 -28.6561 0
4.26455 -30.7823 0
3.97077 -28.5917 0
6.04751 -28.6561 0
5.85195 -26.4239 0
3.97077 -28.5917 0
3.68805 -26.3526 0
7.8072 -26.4297 0
7.66314 -24.1879 0
5.85195 -26.4239 0
5.62834 -24.1506 0
7.66314 -24.1879 0
7.50462 -21.8957 0
5.62834 -24.1506 0
5.42464 -21.8543 0
5.85195 -26.4239 0
5.62834 -24.1506 0
3.68805 -26.3526 0
3.43984 -24.0792 0
5.62834 -24.1506 0
5.42464 -21.8543 0
3.43984 -24.0792 0
3.21447 -21.7907 0
19.3406 -21.9593 0
19.2974 -19.5472 0
17.433 -21.9343 0
17.4427 -19.4985 0
19.2974 -19.5472 0
19.3784 -17.0781 0
17.4427 -19.4985 0
17.3648 -17.1148 0
17.433 -21.9343 0
17.4427 -19.4985 0
15.5344 -21.8929 0
15.4319 -19.5201 0
17.4427 -19.4985 0
17.3648 -17.1148 0
15.4319 -19.5201 0
15.3459 -17.1536 0
19.3784 -17.0781 0
19.3178 -14.6804 0
17.3648 -17.1148 0
17.2963 -14.7386 0
19.3178 -14.6804 0
19.2653 -12.3012 0
17.2963 -14.7386 0
17.2427 -12.3761 0
17.3648 -17.1148 0
17.2963 -14.7386 0
15.3459 -17.1536 0
15.2716 -14.7904 0
17.2963 -14.7386 0
17.2427 -12.3761 0
15.2716 -14.7904 0
15.2133 -12.4417 0
15.5344 -21.8929 0
15.4319 -19.5201 0
13.5188 -21.8927 0
13.414 -19.5439 0
15.4319 -19.5201 0
15.3459 -17.1536 0
13.414 -19.5439 0
13.3188 -17.1856 0
13.5188 -21.8927 0
13.414 -19.5439 0
11.5105 -21.8956 0
11.3931 -19.5632 0
13.414 -19.5439 0
13.3188 -17.1856 0
11.3931 -19.5632 0
11.2966 -17.2199 0
15.3459 -17.1536 0
15.2716 -14.7904 0
13.3188 -17.1856 0
13.243 -14.8375 0
15.2716 -14.7904 0
15.2133 -12.4417 0
13.243 -14.8375 0
13.1913 -12.5046 0
13.3188 -17.1856 0
13.243 -14.8375 0
11.2966 -17.2199 0
11.2221 -14.88 0
13.243 -14.8375 0
13.1913 -12.5046 0
11.2221 -14.88 0
11.1661 -12.5571 0
19.2653 -12.3012 0
19.2294 -9.94371 0
17.2427 -12.3761 0
17.2014 -10.0333 0
19.2294 -9.94371 0
19.2044 -7.59756 0
17.2014 -10.0333 0
17.1872 -7.72154 0
17.2427 -12.3761 0
17.2014 -10.0333 0
15.2133 -12.4417 0
15.1802 -10.1191 0
17.2014 -10.0333 0
17.1872 -7.72154 0
15.1802 -10.1191 0
15.1724 -7.83525 0
19.2044 -7.59756 0
19.2204 -5.31484 0
17.1872 -7.72154 0
17.2067 -5.48014 0
19.2204 -5.31484 0
19.2761 -3.18101 0
17.2067 -5.48014 0
17.2537 -3.36856 0
17.1872 -7.72154 0
17.2067 -5.48014 0
15.1724 -7.83525 0
15.1918 -5.62011 0
17.2067 -5.48014 0
17.2537 -3.36856 0
15.1918 -5.62011 0
15.2301 -3.51815 0
15.2133 -12.4417 0
15.1802 -10.1191 0
13.1913 -12.5046 0
13.1607 -10.1978 0
15.1802 -10.1191 0
15.1724 -7.83525 0
13.1607 -10.1978 0
13.1536 -7.93254 0
13.1913 -12.5046 0
13.1607 -10.1978 0
11.1661 -12.5571 0
11.1318 -10.2615 0
13.1607 -10.1978 0
13.1536 -7.93254 0
11.1318 -10.2615 0
11.1202 -8.00859 0
15.1724 -7.83525 0
15.1918 -5.62011 0
13.1536 -7.93254 0
13.1688 -5.73294 0
15.1918 -5.62011 0
15.2301 -3.51815 0
13.1688 -5.73294 0
13.1971 -3.63026 0
13.1536 -7.93254 0
13.1688 -5.73294 0
11.1202 -8.00859 0
11.1282 -5.81601 0
13.1688 -5.73294 0
13.1971 -3.63026 0
11.1282 -5.81601 0
11.1453 -3.70312 0
11.5105 -21.8956 0
11.3931 -19.5632 0
9.51301 -21.906 0
9.38911 -19.5824 0
11.3931 -19.5632 0
11.2966 -17.2199 0
9.38911 -19.5824 0
9.27791 -17.2403 0
9.51301 -21.906 0
9.38911 -19.5824 0
7.50462 -21.8957 0
7.35166 -19.5724 0
9.38911 -19.5824 0
9.27791 -17.2403 0
7.35166 -19.5724 0
7.22159 -17.2385 0
11.2966 -17.2199 0
11.2221 -14.88 0
9.27791 -17.2403 0
9.1882 -14.907 0
11.2221 -14.88 0
11.1661 -12.5571 0
9.1882 -14.907 0
9.12185 -12.5909 0
9.27791 -17.2403 0
9.1882 -14.907 0
7.22159 -17.2385 0
7.11688 -14.9112 0
9.1882 -14.907 0
9.12185 -12.5909 0
7.11688 -14.9112 0
7.03831 -12.6027 0
7.50462 -21.8957 0
7.35166 -19.5724 0
5.42464 -21.8543 0
5.247 -19.5378 0
7.35166 -19.5724 0
7.22159 -17.2385 0
5.247 -19.5378 0
5.09742 -17.2131 0
5.42464 -21.8543 0
5.247 -19.5378 0
3.21447 -21.7907 0
3.01872 -19.4847 0
5.247 -19.5378 0
5.09742 -17.2131 0
3.01872 -19.4847 0
2.86019 -17.1715 0
7.22159 -17.2385 0
7.11688 -14.9112 0
5.09742 -17.2131 0
4.97936 -14.8942 0
7.11688 -14.9112 0
7.03831 -12.6027 0
4.97936 -14.8942 0
4.89423 -12.5946 0
5.09742 -17.2131 0
4.97936 -14.8942 0
2.86019 -17.1715 0
2.7432 -14.8648 0
4.97936 -14.8942 0
4.89423 -12.5946 0
2.7432 -14.8648 0
2.66893 -12.5773 0
11.1661 -12.5571 0
11.1318 -10.2615 0
9.12185 -12.5909 0
9.07893 -10.3046 0
11.1318 -10.2615 0
11.1202 -8.00859 0
9.07893 -10.3046 0
9.05914 -8.06037 0
9.12185 -12.5909 0
9.07893 -10.3046 0
7.03831 -12.6027 0
6.98624 -10.325 0
9.07893 -10.3046 0
9.05914 -8.06037 0
6.98624 -10.325 0
6.95848 -8.08827 0
11.1202 -8.00859 0
11.1282 -5.81601 0
9.05914 -8.06037 0
9.05818 -5.86929 0
11.1282 -5.81601 0
11.1453 -3.70312 0
9.05818 -5.86929 0
9.06493 -3.73884 0
9.05914 -8.06037 0
9.05818 -5.86929 0
6.95848 -8.08827 0
6.94977 -5.89716 0
9.05818 -5.86929 0
9.06493 -3.73884 0
6.94977 -5.89716 0
6.94924 -3.74706 0
7.03831 -12.6027 0
6.98624 -10.325 0
4.89423 -12.5946 0
4.84035 -10.3261 0
6.98624 -10.325 0
6.95848 -8.08827 0
4.84035 -10.3261 0
4.81233 -8.09702 0
4.89423 -12.5946 0
4.84035 -10.3261 0
2.66893 -12.5773 0
2.63313 -10.3194 0
4.84035 -10.3261 0
4.81233 -8.09702 0
2.63313 -10.3194 0
2.62501 -8.09754 0
6.95848 -8.08827 0
6.94977 -5.89716 0
4.81233 -8.09702 0
4.80207 -5.90738 0
6.94977 -5.89716 0
6.94924 -3.74706 0
4.80207 -5.90738 0
4.79957 -3.74305 0
4.81233 -8.09702 0
4.80207 -5.90738 0
2.62501 -8.09754 0
2.62905 -5.90986 0
4.80207 -5.90738 0
4.79957 -3.74305 0
2.62905 -5.90986 0
2.63165 -3.74045 0
27.1824 -66.0264 0
27.6167 -64.7508 0
25.9592 -66.1622 0
26.3296 -64.8835 0
27.6167 -64.7508 0
28.0397 -63.4117 0
26.3296 -64.8835 0
26.6918 -63.541 0
25.9592 -66.1622 0
26.3296 -64.8835 0
24.7844 -66.2771 0
25.0938 -64.9967 0
26.3296 -64.8835 0
26.6918 -63.541 0
25.0938 -64.9967 0
25.3995 -63.6522 0
28.0397 -63.4117 0
28.4509 -62.0126 0
26.6918 -63.541 0
27.0452 -62.1382 0
28.4509 -62.0126 0
28.8504 -60.5572 0
27.0452 -62.1382 0
27.3894 -60.6791 0
26.6918 -63.541 0
27.0452 -62.1382 0
25.3995 -63.6522 0
25.7017 -62.2465 0
27.0452 -62.1382 0
27.3894 -60.6791 0
25.7017 -62.2465 0
25.9991 -60.7833 0
24.7844 -66.2771 0
25.0938 -64.9967 0
23.7519 -66.3733 0
23.998 -65.0928 0
25.0938 -64.9967 0
25.3995 -63.6522 0