# vtk DataFile Version 3.0
#This file was generated by the deal.II library on 2020/9/2 at 8:38:18
ASCII
DATASET UNSTRUCTURED_GRID

POINTS 1536 double
5 0 0
5.125 0 0
5 0.125 0
5.125 0.125 0
5.125 0 0
5.25 0 0
5.125 0.125 0
5.25 0.125 0
5 0.125 0
5.125 0.125 0
5 0.25 0
5.125 0.25 0
5.125 0.125 0
5.25 0.125 0
5.125 0.25 0
5.25 0.25 0
5.25 0 0
5.375 0 0
5.25 0.125 0
5.375 0.125 0
5.375 0 0
5.5 0 0
5.375 0.125 0
5.5 0.125 0
5.25 0.125 0
5.375 0.125 0
5.25 0.25 0
5.375 0.25 0
5.375 0.125 0
5.5 0.125 0
5.375 0.25 0
5.5 0.25 0
5 0.25 0
5.125 0.25 0
5 0.375 0
5.125 0.375 0
5.125 0.25 0
5.25 0.25 0
5.125 0.375 0
5.25 0.375 0
5 0.375 0
5.125 0.375 0
5 0.5 0
5.125 0.5 0
5.125 0.375 0
5.25 0.375 0
5.125 0.5 0
5.25 0.5 0
5.25 0.25 0
5.375 0.25 0
5.25 0.375 0
5.375 0.375 0
5.375 0.25 0
5.5 0.25 0
5.375 0.375 0
5.5 0.375 0
5.25 0.375 0
5.375 0.375 0
5.25 0.5 0
5.375 0.5 0
5.375 0.375 0
5.5 0.375 0
5.375 0.5 0
5.5 0.5 0
5.5 0 0
5.625 0 0
5.5 0.125 0
5.625 0.125 0
5.625 0 0
5.75 0 0
5.625 0.125 0
5.75 0.125 0
5.5 0.125 0
5.625 0.125 0
5.5 0.25 0
5.625 0.25 0
5.625 0.125 0
5.75 0.125 0
5.625 0.25 0
5.75 0.25 0
5.75 0 0
5.875 0 0
5.75 0.125 0
5.875 0.125 0
5.875 0 0
6 0 0
5.875 0.125 0
6 0.125 0
5.75 0.125 0
5.875 0.125 0
5.75 0.25 0
5.875 0.25 0
5.875 0.125 0
6 0.125 0
5.875 0.25 0
6 0.25 0
5.5 0.25 0
5.625 0.25 0
5.5 0.375 0
5.625 0.375 0
5.625 0.25 0
5.75 0.25 0
5.625 0.375 0
5.75 0.375 0
5.5 0.375 0
5.625 0.375 0
5.5 0.5 0
5.625 0.5 0
5.625 0.375 0
5.75 0.375 0
5.625 0.5 0
5.75 0.5 0
5.75 0.25 0
5.875 0.25 0
5.75 0.375 0
5.875 0.375 0
5.875 0.25 0
6 0.25 0
5.875 0.375 0
6 0.375 0
5.75 0.375 0
5.875 0.375 0
5.75 0.5 0
5.875 0.5 0
5.875 0.375 0
6 0.375 0
5.875 0.5 0
6 0.5 0
5 0.5 0
5.125 0.5 0
5 0.625 0
5.125 0.625 0
5.125 0.5 0
5.25 0.5 0
5.125 0.625 0
5.25 0.625 0
5 0.625 0
5.125 0.625 0
5 0.75 0
5.125 0.75 0
5.125 0.625 0
5.25 0.625 0
5.125 0.75 0
5.25 0.75 0
5.25 0.5 0
5.375 0.5 0
5.25 0.625 0
5.375 0.625 0
5.375 0.5 0
5.5 0.5 0
5.375 0.625 0
5.5 0.625 0
5.25 0.625 0
5.375 0.625 0
5.25 0.75 0
5.375 0.75 0
5.375 0.625 0
5.5 0.625 0
5.375 0.75 0
5.5 0.75 0
5 0.75 0
5.125 0.75 0
5 0.875 0
5.125 0.875 0
5.125 0.75 0
5.25 0.75 0
5.125 0.875 0
5.25 0.875 0
5 0.875 0
5.125 0.875 0
5 1 0
5.125 1 0
5.125 0.875 0
5.25 0.875 0
5.125 1 0
5.25 1 0
5.25 0.75 0
5.375 0.75 0
5.25 0.875 0
5.375 0.875 0
5.375 0.75 0
5.5 0.75 0
5.375 0.875 0
5.5 0.875 0
5.25 0.875 0
5.375 0.875 0
5.25 1 0
5.375 1 0
5.375 0.875 0
5.5 0.875 0
5.375 1 0
5.5 1 0
5.5 0.5 0
5.625 0.5 0
5.5 0.625 0
5.625 0.625 0
5.625 0.5 0
5.75 0.5 0
5.625 0.625 0
5.75 0.625 0
5.5 0.625 0
5.625 0.625 0
5.5 0.75 0
5.625 0.75 0
5.625 0.625 0
5.75 0.625 0
5.625 0.75 0
5.75 0.75 0
5.75 0.5 0
5.875 0.5 0
5.75 0.625 0
5.875 0.625 0
5.875 0.5 0
6 0.5 0
5.875 0.625 0
6 0.625 0
5.75 0.625 0
5.875 0.625 0
5.75 0.75 0
5.875 0.75 0
5.875 0.625 0
6 0.625 0
5.875 0.75 0
6 0.75 0
5.5 0.75 0
5.625 0.75 0
5.5 0.875 0
5.625 0.875 0
5.625 0.75 0
5.75 0.75 0
5.625 0.875 0
5.75 0.875 0
5.5 0.875 0
5.625 0.875 0
5.5 1 0
5.625 1 0
5.625 0.875 0
5.75 0.875 0
5.625 1 0
5.75 1 0
5.75 0.75 0
5.875 0.75 0
5.75 0.875 0
5.875 0.875 0
5.875 0.75 0
6 0.75 0
5.875 0.875 0
6 0.875 0
5.75 0.875 0
5.875 0.875 0
5.75 1 0
5.875 1 0
5.875 0.875 0
6 0.875 0
5.875 1 0
6 1 0
4 0 0
4.125 0 0
4 0.125 0
4.125 0.125 0
4.125 0 0
4.25 0 0
4.125 0.125 0
4.25 0.125 0
4 0.125 0
4.125 0.125 0
4 0.25 0
4.125 0.25 0
4.125 0.125 0
4.25 0.125 0
4.125 0.25 0
4.25 0.25 0
4.25 0 0
4.375 0 0
4.25 0.125 0
4.375 0.125 0
4.375 0 0
4.5 0 0
4.375 0.125 0
4.5 0.125 0
4.25 0.125 0
4.375 0.125 0
4.25 0.25 0
4.375 0.25 0
4.375 0.125 0
4.5 0.125 0
4.375 0.25 0
4.5 0.25 0
4 0.25 0
4.125 0.25 0
4 0.375 0
4.125 0.375 0
4.125 0.25 0
4.25 0.25 0
4.125 0.375 0
4.25 0.375 0
4 0.375 0
4.125 0.375 0
4 0.5 0
4.125 0.5 0
4.125 0.375 0
4.25 0.375 0
4.125 0.5 0
4.25 0.5 0
4.25 0.25 0
4.375 0.25 0
4.25 0.375 0
4.375 0.375 0
4.375 0.25 0
4.5 0.25 0
4.375 0.375 0
4.5 0.375 0
4.25 0.375 0
4.375 0.375 0
4.25 0.5 0
4.375 0.5 0
4.375 0.375 0
4.5 0.375 0
4.375 0.5 0
4.5 0.5 0
4.5 0 0
4.625 0 0
4.5 0.125 0
4.625 0.125 0
4.625 0 0
4.75 0 0
4.625 0.125 0
4.75 0.125 0
4.5 0.125 0
4.625 0.125 0
4.5 0.25 0
4.625 0.25 0
4.625 0.125 0
4.75 0.125 0
4.625 0.25 0
4.75 0.25 0
4.75 0 0
4.875 0 0
4.75 0.125 0
4.875 0.125 0
4.875 0 0
5 0 0
4.875 0.125 0
5 0.125 0
4.75 0.125 0
4.875 0.125 0
4.75 0.25 0
4.875 0.25 0
4.875 0.125 0
5 0.125 0
4.875 0.25 0
5 0.25 0
4.5 0.25 0
4.625 0.25 0
4.5 0.375 0
4.625 0.375 0
4.625 0.25 0
4.75 0.25 0
4.625 0.375 0
4.75 0.375 0
4.5 0.375 0
4.625 0.375 0
4.5 0.5 0
4.625 0.5 0
4.625 0.375 0
4.75 0.375 0
4.625 0.5 0
4.75 0.5 0
4.75 0.25 0
4.875 0.25 0
4.75 0.375 0
4.875 0.375 0
4.875 0.25 0
5 0.25 0
4.875 0.375 0
5 0.375 0
4.75 0.375 0
4.875 0.375 0
4.75 0.5 0
4.875 0.5 0
4.875 0.375 0
5 0.375 0
4.875 0.5 0
5 0.5 0
4 0.5 0
4.125 0.5 0
4 0.625 0
4.125 0.625 0
4.125 0.5 0
4.25 0.5 0
4.125 0.625 0
4.25 0.625 0
4 0.625 0
4.125 0.625 0
4 0.75 0
4.125 0.75 0
4.125 0.625 0
4.25 0.625 0
4.125 0.75 0
4.25 0.75 0
4.25 0.5 0
4.375 0.5 0
4.25 0.625 0
4.375 0.625 0
4.375 0.5 0
4.5 0.5 0
4.375 0.625 0
4.5 0.625 0
4.25 0.625 0
4.375 0.625 0
4.25 0.75 0
4.375 0.75 0
4.375 0.625 0
4.5 0.625 0
4.375 0.75 0
4.5 0.75 0
4 0.75 0
4.125 0.75 0
4 0.875 0
4.125 0.875 0
4.125 0.75 0
4.25 0.75 0
4.125 0.875 0
4.25 0.875 0
4 0.875 0
4.125 0.875 0
4 1 0
4.125 1 0
4.125 0.875 0
4.25 0.875 0
4.125 1 0
4.25 1 0
4.25 0.75 0
4.375 0.75 0
4.25 0.875 0
4.375 0.875 0
4.375 0.75 0
4.5 0.75 0
4.375 0.875 0
4.5 0.875 0
4.25 0.875 0
4.375 0.875 0
4.25 1 0
4.375 1 0
4.375 0.875 0
4.5 0.875 0
4.375 1 0
4.5 1 0
4.5 0.5 0
4.625 0.5 0
4.5 0.625 0
4.625 0.625 0
4.625 0.5 0
4.75 0.5 0
4.625 0.625 0
4.75 0.625 0
4.5 0.625 0
4.625 0.625 0
4.5 0.75 0
4.625 0.75 0
4.625 0.625 0
4.75 0.625 0
4.625 0.75 0
4.75 0.75 0
4.75 0.5 0
4.875 0.5 0
4.75 0.625 0
4.875 0.625 0
4.875 0.5 0
5 0.5 0
4.875 0.625 0
5 0.625 0
4.75 0.625 0
4.875 0.625 0
4.75 0.75 0
4.875 0.75 0
4.875 0.625 0
5 0.625 0
4.875 0.75 0
5 0.75 0
4.5 0.75 0
4.625 0.75 0
4.5 0.875 0
4.625 0.875 0
4.625 0.75 0
4.75 0.75 0
4.625 0.875 0
4.75 0.875 0
4.5 0.875 0
4.625 0.875 0
4.5 1 0
4.625 1 0
4.625 0.875 0
4.75 0.875 0
4.625 1 0
4.75 1 0
4.75 0.75 0
4.875 0.75 0
4.75 0.875 0
4.875 0.875 0
4.875 0.75 0
5 0.75 0
4.875 0.875 0
5 0.875 0
4.75 0.875 0
4.875 0.875 0
4.75 1 0
4.875 1 0
4.875 0.875 0
5 0.875 0
4.875 1 0
5 1 0
3 0 0
3.125 0 0
3 0.125 0
3.125 0.125 0
3.125 0 0
3.25 0 0
3.125 0.125 0
3.25 0.125 0
3 0.125 0
3.125 0.125 0
3 0.25 0
3.125 0.25 0
3.125 0.125 0
3.25 0.125 0
3.125 0.25 0
3.25 0.25 0
3.25 0 0
3.375 0 0
3.25 0.125 0
3.375 0.125 0
3.375 0 0
3.5 0 0
3.375 0.125 0
3.5 0.125 0
3.25 0.125 0
3.375 0.125 0
3.25 0.25 0
3.375 0.25 0
3.375 0.125 0
3.5 0.125 0
3.375 0.25 0
3.5 0.25 0
3 0.25 0
3.125 0.25 0
3 0.375 0
3.125 0.375 0
3.125 0.25 0
3.25 0.25 0
3.125 0.375 0
3.25 0.375 0
3 0.375 0
3.125 0.375 0
3 0.5 0
3.125 0.5 0
3.125 0.375 0
3.25 0.375 0
3.125 0.5 0
3.25 0.5 0
3.25 0.25 0
3.375 0.25 0
3.25 0.375 0
3.375 0.375 0
3.375 0.25 0
3.5 0.25 0
3.375 0.375 0
3.5 0.375 0
3.25 0.375 0
3.375 0.375 0
3.25 0.5 0
3.375 0.5 0
3.375 0.375 0
3.5 0.375 0
3.375 0.5 0
3.5 0.5 0
3.5 0 0
3.625 0 0
3.5 0.125 0
3.625 0.125 0
3.625 0 0
3.75 0 0
3.625 0.125 0
3.75 0.125 0
3.5 0.125 0
3.625 0.125 0
3.5 0.25 0
3.625 0.25 0
3.625 0.125 0
3.75 0.125 0
3.625 0.25 0
3.75 0.25 0
3.75 0 0
3.875 0 0
3.75 0.125 0
3.875 0.125 0
3.875 0 0
4 0 0
3.875 0.125 0
4 0.125 0
3.75 0.125 0
3.875 0.125 0
3.75 0.25 0
3.875 0.25 0
3.875 0.125 0
4 0.125 0
3.875 0.25 0
4 0.25 0
3.5 0.25 0
3.625 0.25 0
3.5 0.375 0
3.625 0.375 0
3.625 0.25 0
3.75 0.25 0
3.625 0.375 0
3.75 0.375 0
3.5 0.375 0
3.625 0.375 0
3.5 0.5 0
3.625 0.5 0
3.625 0.375 0
3.75 0.375 0
3.625 0.5 0
3.75 0.5 0
3.75 0.25 0
3.875 0.25 0
3.75 0.375 0
3.875 0.375 0
3.875 0.25 0
4 0.25 0
3.875 0.375 0
4 0.375 0
3.75 0.375 0
3.875 0.375 0
3.75 0.5 0
3.875 0.5 0
3.875 0.375 0
4 0.375 0
3.875 0.5 0
4 0.5 0
3 0.5 0
3.125 0.5 0
3 0.625 0
3.125 0.625 0
3.125 0.5 0
3.25 0.5 0
3.125 0.625 0
3.25 0.625 0
3 0.625 0
3.125 0.625 0
3 0.75 0
3.125 0.75 0
3.125 0.625 0
3.25 0.625 0
3.125 0.75 0
3.25 0.75 0
3.25 0.5 0
3.375 0.5 0
3.25 0.625 0
3.375 0.625 0
3.375 0.5 0
3.5 0.5 0
3.375 0.625 0
3.5 0.625 0
3.25 0.625 0
3.375 0.625 0
3.25 0.75 0
3.375 0.75 0
3.375 0.625 0
3.5 0.625 0
3.375 0.75 0
3.5 0.75 0
3 0.75 0
3.125 0.75 0
3 0.875 0
3.125 0.875 0
3.125 0.75 0
3.25 0.75 0
3.125 0.875 0
3.25 0.875 0
3 0.875 0
3.125 0.875 0
3 1 0
3.125 1 0
3.125 0.875 0
3.25 0.875 0
3.125 1 0
3.25 1 0
3.25 0.75 0
3.375 0.75 0
3.25 0.875 0
3.375 0.875 0
3.375 0.75 0
3.5 0.75 0
3.375 0.875 0
3.5 0.875 0
3.25 0.875 0
3.375 0.875 0
3.25 1 0
3.375 1 0
3.375 0.875 0
3.5 0.875 0
3.375 1 0
3.5 1 0
3.5 0.5 0
3.625 0.5 0
3.5 0.625 0
3.625 0.625 0
3.625 0.5 0
3.75 0.5 0
3.625 0.625 0
3.75 0.625 0
3.5 0.625 0
3.625 0.625 0
3.5 0.75 0
3.625 0.75 0
3.625 0.625 0
3.75 0.625 0
3.625 0.75 0
3.75 0.75 0
3.75 0.5 0
3.875 0.5 0
3.75 0.625 0
3.875 0.625 0
3.875 0.5 0
4 0.5 0
3.875 0.625 0
4 0.625 0
3.75 0.625 0
3.875 0.625 0
3.75 0.75 0
3.875 0.75 0
3.875 0.625 0
4 0.625 0
3.875 0.75 0
4 0.75 0
3.5 0.75 0
3.625 0.75 0
3.5 0.875 0
3.625 0.875 0
3.625 0.75 0
3.75 0.75 0
3.625 0.875 0
3.75 0.875 0
3.5 0.875 0
3.625 0.875 0
3.5 1 0
3.625 1 0
3.625 0.875 0
3.75 0.875 0
3.625 1 0
3.75 1 0
3.75 0.75 0
3.875 0.75 0
3.75 0.875 0
3.875 0.875 0
3.875 0.75 0
4 0.75 0
3.875 0.875 0
4 0.875 0
3.75 0.875 0
3.875 0.875 0
3.75 1 0
3.875 1 0
3.875 0.875 0
4 0.875 0
3.875 1 0
4 1 0
2 0 0
2.125 0 0
2 0.125 0
2.125 0.125 0
2.125 0 0
2.25 0 0
2.125 0.125 0
2.25 0.125 0
2 0.125 0
2.125 0.125 0
2 0.25 0
2.125 0.25 0
2.125 0.125 0
2.25 0.125 0
2.125 0.25 0
2.25 0.25 0
2.25 0 0
2.375 0 0
2.25 0.125 0
2.375 0.125 0
2.375 0 0
2.5 0 0
2.375 0.125 0
2.5 0.125 0
2.25 0.125 0
2.375 0.125 0
2.25 0.25 0
2.375 0.25 0
2.375 0.125 0
2.5 0.125 0
2.375 0.25 0
2.5 0.25 0
2 0.25 0
2.125 0.25 0
2 0.375 0
2.125 0.375 0
2.125 0.25 0
2.25 0.25 0
2.125 0.375 0
2.25 0.375 0
2 0.375 0
2.125 0.375 0
2 0.5 0
2.125 0.5 0
2.125 0.375 0
2.25 0.375 0
2.125 0.5 0
2.25 0.5 0
2.25 0.25 0
2.375 0.25 0
2.25 0.375 0
2.375 0.375 0
2.375 0.25 0
[...]
POINT_DATA 1536
VECTORS displacements double
10.2251 -11.2573 0
10.3635 -10.0409 0
9.04397 -11.2999 0
9.14766 -10.0785 0
10.3635 -10.0409 0
10.4868 -8.79306 0
9.14766 -10.0785 0
9.23913 -8.82618 0
9.04397 -11.2999 0
9.14766 -10.0785 0
7.89258 -11.3294 0
7.96003 -10.1039 0
9.14766 -10.0785 0
9.23913 -8.82618 0
7.96003 -10.1039 0
8.01766 -8.84712 0
10.4868 -8.79306 0
10.5973 -7.51727 0
9.23913 -8.82618 0
9.31903 -7.54629 0
10.5973 -7.51727 0
10.6993 -6.2148 0
9.31903 -7.54629 0
9.3878 -6.24063 0
9.23913 -8.82618 0
9.31903 -7.54629 0
8.01766 -8.84712 0
8.06457 -7.56241 0
9.31903 -7.54629 0
9.3878 -6.24063 0
8.06457 -7.56241 0
8.09889 -6.25107 0
7.89258 -11.3294 0
7.96003 -10.1039 0
6.76194 -11.3457 0
6.79339 -10.1166 0
7.96003 -10.1039 0
8.01766 -8.84712 0
6.79339 -10.1166 0
6.81817 -8.85577 0
6.76194 -11.3457 0
6.79339 -10.1166 0
5.64285 -11.349 0
5.6396 -10.1176 0
6.79339 -10.1166 0
6.81817 -8.85577 0
5.6396 -10.1176 0
5.63404 -8.85395 0
8.01766 -8.84712 0
8.06457 -7.56241 0
6.81817 -8.85577 0
6.83505 -7.56645 0
8.06457 -7.56241 0
8.09889 -6.25107 0
6.83505 -7.56645 0
6.84257 -6.2507 0
6.81817 -8.85577 0
6.83505 -7.56645 0
5.63404 -8.85395 0
5.62539 -7.56199 0
6.83505 -7.56645 0
6.84257 -6.2507 0
5.62539 -7.56199 0
5.61352 -6.2454 0
10.6993 -6.2148 0
10.8005 -4.88319 0
9.3878 -6.24063 0
9.44445 -4.90553 0
10.8005 -4.88319 0
10.9163 -3.50172 0
9.44445 -4.90553 0
9.48275 -3.52863 0
9.3878 -6.24063 0
9.44445 -4.90553 0
8.09889 -6.25107 0
8.11724 -4.91045 0
9.44445 -4.90553 0
9.48275 -3.52863 0
8.11724 -4.91045 0
8.11494 -3.52642 0
10.9163 -3.50172 0
11.0654 -2.03924 0
9.48275 -3.52863 0
9.47623 -2.0342 0
11.0654 -2.03924 0
11.2273 0 0
9.47623 -2.0342 0
9.51602 -0.441555 0
9.48275 -3.52863 0
9.47623 -2.0342 0
8.11494 -3.52642 0
8.11345 -2.09415 0
9.47623 -2.0342 0
9.51602 -0.441555 0
8.11345 -2.09415 0
8.15084 -0.697483 0
8.09889 -6.25107 0
8.11724 -4.91045 0
6.84257 -6.2507 0
6.84013 -4.90815 0
8.11724 -4.91045 0
8.11494 -3.52642 0
6.84013 -4.90815 0
6.83383 -3.54046 0
6.84257 -6.2507 0
6.84013 -4.90815 0
5.61352 -6.2454 0
5.60062 -4.90879 0
6.84013 -4.90815 0
6.83383 -3.54046 0
5.60062 -4.90879 0
5.59256 -3.56207 0
8.11494 -3.52642 0
8.11345 -2.09415 0
6.83383 -3.54046 0
6.8389 -2.16845 0
8.11345 -2.09415 0
8.15084 -0.697483 0
6.8389 -2.16845 0
6.86653 -0.850005 0
6.83383 -3.54046 0
6.8389 -2.16845 0
5.59256 -3.56207 0
5.59685 -2.22759 0
6.8389 -2.16845 0
6.86653 -0.850005 0
5.59685 -2.22759 0
5.61474 -0.942946 0
5.64285 -11.349 0
5.6396 -10.1176 0
4.52523 -11.3404 0
4.48879 -10.1083 0
5.6396 -10.1176 0
5.63404 -8.85395 0
4.48879 -10.1083 0
4.45531 -8.84379 0
4.52523 -11.3404 0
4.48879 -10.1083 0
3.39797 -11.3205 0
3.32936 -10.0897 0
4.48879 -10.1083 0
4.45531 -8.84379 0
3.32936 -10.0897 0
3.26952 -8.8267 0
5.63404 -8.85395 0
5.62539 -7.56199 0
4.45531 -8.84379 0
4.4246 -7.5518 0
5.62539 -7.56199 0
5.61352 -6.2454 0
4.4246 -7.5518 0
4.39733 -6.23796 0
4.45531 -8.84379 0
4.4246 -7.5518 0
3.26952 -8.8267 0
3.21864 -7.53707 0
4.4246 -7.5518 0
4.39733 -6.23796 0
3.21864 -7.53707 0
3.17741 -6.22786 0
3.39797 -11.3205 0
3.32936 -10.0897 0
2.24914 -11.2896 0
2.14846 -10.0624 0
3.32936 -10.0897 0
3.26952 -8.8267 0
2.14846 -10.0624 0
2.06257 -8.80318 0
2.24914 -11.2896 0
2.14846 -10.0624 0
1.06642 -11.2475 0
0.932514 -10.026 0
2.14846 -10.0624 0
2.06257 -8.80318 0
0.932514 -10.026 0
0.819267 -8.77276 0
3.26952 -8.8267 0
3.21864 -7.53707 0
2.06257 -8.80318 0
1.9921 -7.51794 0
3.21864 -7.53707 0
3.17741 -6.22786 0
1.9921 -7.51794 0
1.93767 -6.21433 0
2.06257 -8.80318 0
1.9921 -7.51794 0
0.819267 -8.77276 0
0.728233 -7.49403 0
1.9921 -7.51794 0
1.93767 -6.21433 0
0.728233 -7.49403 0
0.660936 -6.19747 0
5.61352 -6.2454 0
5.60062 -4.90879 0
4.39733 -6.23796 0
4.37575 -4.91013 0
5.60062 -4.90879 0
5.59256 -3.56207 0
4.37575 -4.91013 0
4.36358 -3.5805 0
4.39733 -6.23796 0
4.37575 -4.91013 0
3.17741 -6.22786 0
3.14708 -4.9085 0
4.37575 -4.91013 0
4.36358 -3.5805 0
3.14708 -4.9085 0
3.12914 -3.59122 0
5.59256 -3.56207 0
5.59685 -2.22759 0
4.36358 -3.5805 0
4.36356 -2.26743 0
5.59685 -2.22759 0
5.61474 -0.942946 0
4.36356 -2.26743 0
4.37276 -0.9951 0
4.36358 -3.5805 0
4.36356 -2.26743 0
3.12914 -3.59122 0
3.12371 -2.28998 0
4.36356 -2.26743 0
4.37276 -0.9951 0
3.12371 -2.28998 0
3.12608 -1.01821 0
3.17741 -6.22786 0
3.14708 -4.9085 0
1.93767 -6.21433 0
1.89949 -4.90225 0
3.14708 -4.9085 0
3.12914 -3.59122 0
1.89949 -4.90225 0
1.87681 -3.59349 0
1.93767 -6.21433 0
1.89949 -4.90225 0
0.660936 -6.19747 0
0.617917 -4.89269 0
1.89949 -4.90225 0
1.87681 -3.59349 0
0.617917 -4.89269 0
0.5971 -3.59065 0
3.12914 -3.59122 0
3.12371 -2.28998 0
1.87681 -3.59349 0
1.86726 -2.29919 0
3.12371 -2.28998 0
3.12608 -1.01821 0
1.86726 -2.29919 0
1.8656 -1.02364 0
1.87681 -3.59349 0
1.86726 -2.29919 0
0.5971 -3.59065 0
0.591957 -2.30078 0
1.86726 -2.29919 0
1.8656 -1.02364 0
0.591957 -2.30078 0
0.592048 -1.02357 0
8.49044 -19.3254 0
8.77001 -18.521 0
7.74217 -19.4094 0
7.95163 -18.5998 0
8.77001 -18.521 0
9.03142 -17.6493 0
7.95163 -18.5998 0
8.14767 -17.7229 0
7.74217 -19.4094 0
7.95163 -18.5998 0
7.02705 -19.469 0
7.16604 -18.6558 0
7.95163 -18.5998 0
8.14767 -17.7229 0
7.16604 -18.6558 0
7.29638 -17.7752 0
9.03142 -17.6493 0
9.27484 -16.7147 0
8.14767 -17.7229 0
8.33031 -16.7831 0
9.27484 -16.7147 0
9.50036 -15.7218 0
8.33031 -16.7831 0
8.49959 -15.785 0
8.14767 -17.7229 0
8.33031 -16.7831 0
7.29638 -17.7752 0
7.41799 -16.8318 0
8.33031 -16.7831 0
8.49959 -15.785 0
7.41799 -16.8318 0
7.53081 -15.83 0
7.02705 -19.469 0
7.16604 -18.6558 0
6.33297 -19.5039 0
6.40161 -18.6888 0
7.16604 -18.6558 0
7.29638 -17.7752 0
6.40161 -18.6888 0
6.46629 -17.8063 0
6.33297 -19.5039 0
6.40161 -18.6888 0
5.64844 -19.5145 0
5.64716 -18.6991 0
6.40161 -18.6888 0
6.46629 -17.8063 0
5.64716 -18.6991 0
5.64644 -17.8162 0
7.29638 -17.7752 0
7.41799 -16.8318 0
6.46629 -17.8063 0
6.52685 -16.8609 0
7.41799 -16.8318 0
7.53081 -15.83 0
6.52685 -16.8609 0
6.58313 -15.8569 0
6.46629 -17.8063 0
6.52685 -16.8609 0
5.64644 -17.8162 0
5.64607 -16.8702 0
6.52685 -16.8609 0
6.58313 -15.8569 0
5.64607 -16.8702 0
5.6459 -15.8656 0
9.50036 -15.7218 0
9.70803 -14.675 0
8.49959 -15.785 0
8.65553 -14.733 0
9.70803 -14.675 0
9.89791 -13.5789 0
8.65553 -14.733 0
8.79816 -13.6317 0
8.49959 -15.785 0
8.65553 -14.733 0
7.53081 -15.83 0
7.63475 -14.7743 0
8.65553 -14.733 0
8.79816 -13.6317 0
7.63475 -14.7743 0
7.72976 -13.6692 0
9.89791 -13.5789 0
10.0702 -12.4382 0
8.79816 -13.6317 0
8.92758 -12.4858 0
10.0702 -12.4382 0
10.2251 -11.2573 0
8.92758 -12.4858 0
9.04397 -11.2999 0
8.79816 -13.6317 0
8.92758 -12.4858 0
7.72976 -13.6692 0
7.81575 -12.5194 0
8.92758 -12.4858 0
9.04397 -11.2999 0
7.81575 -12.5194 0
7.89258 -11.3294 0
7.53081 -15.83 0
7.63475 -14.7743 0
6.58313 -15.8569 0
6.635 -14.7988 0
7.63475 -14.7743 0
7.72976 -13.6692 0
6.635 -14.7988 0
6.68227 -13.6913 0
6.58313 -15.8569 0
6.635 -14.7988 0
5.6459 -15.8656 0
5.64574 -14.8067 0
6.635 -14.7988 0
6.68227 -13.6913 0
5.64574 -14.8067 0
5.64539 -13.698 0
7.72976 -13.6692 0
7.81575 -12.5194 0
6.68227 -13.6913 0
6.72471 -12.5387 0
7.81575 -12.5194 0
7.89258 -11.3294 0
6.72471 -12.5387 0
6.76194 -11.3457 0
6.68227 -13.6913 0
6.72471 -12.5387 0
5.64539 -13.698 0
5.64457 -12.5439 0
6.72471 -12.5387 0
6.76194 -11.3457 0
5.64457 -12.5439 0
5.64285 -11.349 0
5.64844 -19.5145 0
5.64716 -18.6991 0
4.9626 -19.5012 0
4.89196 -18.6869 0
5.64716 -18.6991 0
5.64644 -17.8162 0
4.89196 -18.6869 0
4.82616 -17.8051 0
4.9626 -19.5012 0
4.89196 -18.6869 0
4.2652 -19.4642 0
4.12568 -18.6525 0
4.89196 -18.6869 0
4.82616 -17.8051 0
4.12568 -18.6525 0
3.99508 -17.7731 0
5.64644 -17.8162 0
5.64607 -16.8702 0
4.82616 -17.8051 0
4.76506 -16.8601 0
5.64607 -16.8702 0
5.6459 -15.8656 0
4.76506 -16.8601 0
4.70854 -15.8562 0
4.82616 -17.8051 0
4.76506 -16.8601 0
3.99508 -17.7731 0
3.87336 -16.8305 0
4.76506 -16.8601 0
4.70854 -15.8562 0
3.87336 -16.8305 0
3.76053 -15.8289 0
4.2652 -19.4642 0
4.12568 -18.6525 0
3.54654 -19.4041 0
3.33831 -18.5961 0
4.12568 -18.6525 0
3.99508 -17.7731 0
3.33831 -18.5961 0
3.14292 -17.7205 0
3.54654 -19.4041 0
3.33831 -18.5961 0
2.79719 -19.3206 0
2.51984 -18.5176 0
3.33831 -18.5961 0
3.14292 -17.7205 0
2.51984 -18.5176 0
2.25933 -17.647 0
3.99508 -17.7731 0
3.87336 -16.8305 0
3.14292 -17.7205 0
2.96054 -16.7815 0
3.87336 -16.8305 0
3.76053 -15.8289 0
2.96054 -16.7815 0
2.79132 -15.7836 0
3.14292 -17.7205 0
2.96054 -16.7815 0
2.25933 -17.647 0
2.01604 -16.7131 0
2.96054 -16.7815 0
2.79132 -15.7836 0
2.01604 -16.7131 0
1.79023 -15.7203 0
5.6459 -15.8656 0
5.64574 -14.8067 0
4.70854 -15.8562 0
4.65646 -14.7979 0
5.64574 -14.8067 0
5.64539 -13.698 0
4.65646 -14.7979 0
4.60871 -13.6896 0
4.70854 -15.8562 0
4.65646 -14.7979 0
3.76053 -15.8289 0
3.65659 -14.7727 0
4.65646 -14.7979 0
4.60871 -13.6896 0
3.65659 -14.7727 0
3.56154 -13.6664 0
5.64539 -13.698 0
5.64457 -12.5439 0
4.60871 -13.6896 0
4.56506 -12.5356 0
5.64457 -12.5439 0
5.64285 -11.349 0
4.56506 -12.5356 0
4.52523 -11.3404 0
4.60871 -13.6896 0
4.56506 -12.5356 0
3.56154 -13.6664 0
3.47534 -12.5142 0
4.56506 -12.5356 0
4.52523 -11.3404 0
3.47534 -12.5142 0
3.39797 -11.3205 0
3.76053 -15.8289 0
3.65659 -14.7727 0
2.79132 -15.7836 0
2.63541 -14.7311 0
3.65659 -14.7727 0
3.56154 -13.6664 0
2.63541 -14.7311 0
2.49293 -13.6284 0
2.79132 -15.7836 0
2.63541 -14.7311 0
1.79023 -15.7203 0
1.5821 -14.673 0
2.63541 -14.7311 0
2.49293 -13.6284 0
1.5821 -14.673 0
1.39186 -13.5755 0
3.56154 -13.6664 0
3.47534 -12.5142 0
2.49293 -13.6284 0
2.36409 -12.4798 0
3.47534 -12.5142 0
3.39797 -11.3205 0
2.36409 -12.4798 0
2.24914 -11.2896 0
2.49293 -13.6284 0
2.36409 -12.4798 0
1.39186 -13.5755 0
1.21981 -12.4322 0
2.36409 -12.4798 0
2.24914 -11.2896 0
1.21981 -12.4322 0
1.06642 -11.2475 0
5.61365 -22.6679 0
6.02125 -22.6097 0
5.61365 -22.7874 0
5.91264 -22.7282 0
6.02125 -22.6097 0
6.42235 -22.4368 0
5.91264 -22.7282 0
6.20725 -22.5523 0
5.61365 -22.7874 0
5.91264 -22.7282 0
5.61365 -22.8778 0
5.81486 -22.8173 0
5.91264 -22.7282 0
6.20725 -22.5523 0
5.81486 -22.8173 0
6.01221 -22.6379 0
6.42235 -22.4368 0
6.81144 -22.1538 0
6.20725 -22.5523 0
6.49374 -22.265 0
6.81144 -22.1538 0
7.1846 -21.7674 0
6.49374 -22.265 0
6.76942 -21.8733 0
6.20725 -22.5523 0
6.49374 -22.265 0
6.01221 -22.6379 0
6.20281 -22.3459 0
6.49374 -22.265 0
6.76942 -21.8733 0
6.20281 -22.3459 0
6.3851 -21.9492 0
5.61365 -22.8778 0
5.81486 -22.8173 0
5.61365 -22.9461 0
5.72357 -22.8833 0
5.81486 -22.8173 0
6.01221 -22.6379 0
5.72357 -22.8833 0
5.82904 -22.6983 0
5.61365 -22.9461 0
5.72357 -22.8833 0
5.61365 -22.9975 0
5.63586 -22.9307 0
5.72357 -22.8833 0
5.82904 -22.6983 0
5.63586 -22.9307 0
5.65169 -22.7358 0
6.01221 -22.6379 0
6.20281 -22.3459 0
5.82904 -22.6983 0
5.92752 -22.3993 0
6.20281 -22.3459 0
6.3851 -21.9492 0
5.92752 -22.3993 0
6.01877 -21.9965 0
5.82904 -22.6983 0
5.92752 -22.3993 0
5.65169 -22.7358 0
5.65887 -22.4262 0
5.92752 -22.3993 0
6.01877 -21.9965 0
5.65887 -22.4262 0
5.6594 -22.0154 0
7.1846 -21.7674 0
7.53961 -21.2846 0
6.76942 -21.8733 0
7.03267 -21.385 0
7.53961 -21.2846 0
7.87557 -20.7125 0
7.03267 -21.385 0
7.2827 -20.8074 0
6.76942 -21.8733 0
7.03267 -21.385 0
6.3851 -21.9492 0
6.55861 -21.4562 0
7.03267 -21.385 0
7.2827 -20.8074 0
6.55861 -21.4562 0
6.72335 -20.8744 0
7.87557 -20.7125 0
8.19241 -20.0575 0
7.2827 -20.8074 0
7.51921 -20.147 0
8.19241 -20.0575 0
8.49044 -19.3254 0
7.51921 -20.147 0
7.74217 -19.4094 0
7.2827 -20.8074 0
7.51921 -20.147 0
6.72335 -20.8744 0
6.87948 -20.2102 0
7.51921 -20.147 0
7.74217 -19.4094 0
6.87948 -20.2102 0
7.02705 -19.469 0
6.3851 -21.9492 0
6.55861 -21.4562 0
6.01877 -21.9965 0
6.10394 -21.4989 0
6.55861 -21.4562 0
6.72335 -20.8744 0
6.10394 -21.4989 0
6.18426 -20.9139 0
6.01877 -21.9965 0
6.10394 -21.4989 0
5.6594 -22.0154 0
5.6567 -21.5132 0
6.10394 -21.4989 0
6.18426 -20.9139 0
5.6567 -21.5132 0
5.65332 -20.9259 0
6.72335 -20.8744 0
6.87948 -20.2102 0
6.18426 -20.9139 0
6.26051 -20.2472 0
6.87948 -20.2102 0
7.02705 -19.469 0
6.26051 -20.2472 0
6.33297 -19.5039 0
6.18426 -20.9139 0
6.26051 -20.2472 0
5.65332 -20.9259 0
5.65047 -20.2582 0
6.26051 -20.2472 0
6.33297 -19.5039 0
5.65047 -20.2582 0
5.64844 -19.5145 0
5.61365 -22.9975 0
5.63586 -22.9307 0
5.61365 -23.0372 0
5.54923 -22.9624 0
5.63586 -22.9307 0
5.65169 -22.7358 0
5.54923 -22.9624 0
5.47423 -22.7501 0
5.61365 -23.0372 0
5.54923 -22.9624 0
5.61365 -23.0716 0
5.46021 -22.9805 0
5.54923 -22.9624 0
5.47423 -22.7501 0
5.46021 -22.9805 0
5.28808 -22.7365 0
5.65169 -22.7358 0
5.65887 -22.4262 0
5.47423 -22.7501 0
5.38765 -22.4246 0
5.65887 -22.4262 0
5.6594 -22.0154 0
5.38765 -22.4246 0
5.29584 -22.0045 0
5.47423 -22.7501 0
5.38765 -22.4246 0
5.28808 -22.7365 0
5.10104 -22.3892 0
5.38765 -22.4246 0
5.29584 -22.0045 0
5.10104 -22.3892 0
4.91518 -21.9617 0
5.61365 -23.0716 0
5.46021 -22.9805 0
5.61365 -23.1138 0
5.36033 -22.982 0
5.46021 -22.9805 0
5.28808 -22.7365 0
5.36033 -22.982 0
5.07087 -22.68 0
5.61365 -23.1138 0
5.36033 -22.982 0
5.61365 -23.161 0
5.16559 -22.9463 0
5.36033 -22.982 0
5.07087 -22.68 0
5.16559 -22.9463 0
4.76828 -22.5679 0
5.28808 -22.7365 0
5.10104 -22.3892 0
5.07087 -22.68 0
4.7782 -22.3151 0
5.10104 -22.3892 0
4.91518 -21.9617 0
4.7782 -22.3151 0
4.50495 -21.8881 0
5.07087 -22.68 0
4.7782 -22.3151 0
4.76828 -22.5679 0
4.40751 -22.2107 0
4.7782 -22.3151 0
4.50495 -21.8881 0
4.40751 -22.2107 0
4.0598 -21.7866 0
5.6594 -22.0154 0
5.6567 -21.5132 0
5.29584 -22.0045 0
5.20532 -21.4986 0
5.6567 -21.5132 0
5.65332 -20.9259 0
5.20532 -21.4986 0
5.11921 -20.9107 0
5.29584 -22.0045 0
5.20532 -21.4986 0
4.91518 -21.9617 0
4.73845 -21.4553 0
5.20532 -21.4986 0
5.11921 -20.9107 0
4.73845 -21.4553 0
4.57138 -20.8689 0
5.65332 -20.9259 0
5.65047 -20.2582 0
5.11921 -20.9107 0
5.0383 -20.2437 0
5.65047 -20.2582 0
5.64844 -19.5145 0
5.0383 -20.2437 0
4.9626 -19.5012 0
5.11921 -20.9107 0
5.0383 -20.2437 0
4.57138 -20.8689 0
4.41371 -20.2043 0
5.0383 -20.2437 0
4.9626 -19.5012 0
4.41371 -20.2043 0
4.2652 -19.4642 0
4.91518 -21.9617 0
4.73845 -21.4553 0
4.50495 -21.8881 0
4.24638 -21.3842 0
4.73845 -21.4553 0
4.57138 -20.8689 0
4.24638 -21.3842 0
4.00069 -20.8014 0
4.50495 -21.8881 0
4.24638 -21.3842 0
4.0598 -21.7866 0
3.72339 -21.287 0
4.24638 -21.3842 0
4.00069 -20.8014 0
3.72339 -21.287 0
3.39993 -20.7085 0
4.57138 -20.8689 0
4.41371 -20.2043 0
4.00069 -20.8014 0
3.7674 -20.1404 0
4.41371 -20.2043 0
4.2652 -19.4642 0
3.7674 -20.1404 0
3.54654 -19.4041 0
4.00069 -20.8014 0
3.7674 -20.1404 0
3.39993 -20.7085 0
3.09082 -20.0521 0
3.7674 -20.1404 0
3.54654 -19.4041 0
3.09082 -20.0521 0
2.79719 -19.3206 0
2.73685 -19.3254 0
3.03488 -20.0575 0
3.48512 -19.4094 0
3.70808 -20.147 0
3.03488 -20.0575 0
3.35172 -20.7125 0
3.70808 -20.147 0
3.94459 -20.8074 0
3.48512 -19.4094 0
3.70808 -20.147 0
4.20025 -19.469 0
4.34782 -20.2102 0
3.70808 -20.147 0
3.94459 -20.8074 0
4.34782 -20.2102 0
4.50394 -20.8744 0
3.35172 -20.7125 0
3.68768 -21.2846 0
3.94459 -20.8074 0
4.19462 -21.385 0
3.68768 -21.2846 0
4.04269 -21.7674 0
4.19462 -21.385 0
4.45787 -21.8733 0
3.94459 -20.8074 0
4.19462 -21.385 0
4.50394 -20.8744 0
4.66869 -21.4562 0
4.19462 -21.385 0
4.45787 -21.8733 0
4.66869 -21.4562 0
4.84219 -21.9492 0
4.20025 -19.469 0
4.34782 -20.2102 0
4.89432 -19.5039 0
4.96678 -20.2472 0
4.34782 -20.2102 0
4.50394 -20.8744 0
4.96678 -20.2472 0
5.04303 -20.9139 0
4.89432 -19.5039 0
4.96678 -20.2472 0
5.57885 -19.5145 0
5.57682 -20.2582 0
4.96678 -20.2472 0
5.04303 -20.9139 0
5.57682 -20.2582 0
5.57397 -20.9259 0
4.50394 -20.8744 0
4.66869 -21.4562 0
5.04303 -20.9139 0
5.12335 -21.4989 0
4.66869 -21.4562 0
4.84219 -21.9492 0
5.12335 -21.4989 0
5.20852 -21.9965 0
5.04303 -20.9139 0
5.12335 -21.4989 0
5.57397 -20.9259 0
5.57059 -21.5132 0
5.12335 -21.4989 0
5.20852 -21.9965 0
5.57059 -21.5132 0
5.56789 -22.0154 0
4.04269 -21.7674 0
4.41585 -22.1538 0
4.45787 -21.8733 0
4.73355 -22.265 0
4.41585 -22.1538 0
4.80494 -22.4368 0
4.73355 -22.265 0
5.02004 -22.5523 0
4.45787 -21.8733 0
4.73355 -22.265 0
4.84219 -21.9492 0
5.02448 -22.3459 0
4.73355 -22.265 0
5.02004 -22.5523 0
5.02448 -22.3459 0
5.21508 -22.6379 0
4.80494 -22.4368 0
5.20604 -22.6097 0
5.02004 -22.5523 0
5.31465 -22.7282 0
5.20604 -22.6097 0
5.61365 -22.6679 0
5.31465 -22.7282 0
5.61365 -22.7874 0
5.02004 -22.5523 0
5.31465 -22.7282 0
5.21508 -22.6379 0
5.41243 -22.8173 0
5.31465 -22.7282 0
5.61365 -22.7874 0
5.41243 -22.8173 0
5.61365 -22.8778 0
4.84219 -21.9492 0
5.02448 -22.3459 0
5.20852 -21.9965 0
5.29978 -22.3993 0
5.02448 -22.3459 0
5.21508 -22.6379 0
5.29978 -22.3993 0
5.39825 -22.6983 0
5.20852 -21.9965 0
5.29978 -22.3993 0
5.56789 -22.0154 0
5.56842 -22.4262 0
5.29978 -22.3993 0
5.39825 -22.6983 0
5.56842 -22.4262 0
5.5756 -22.7358 0
5.21508 -22.6379 0
5.41243 -22.8173 0
5.39825 -22.6983 0
5.50372 -22.8833 0
5.41243 -22.8173 0
5.61365 -22.8778 0
5.50372 -22.8833 0
5.61365 -22.9461 0
5.39825 -22.6983 0
5.50372 -22.8833 0
5.5756 -22.7358 0
5.59143 -22.9307 0
5.50372 -22.8833 0
5.61365 -22.9461 0
5.59143 -22.9307 0
5.61365 -22.9975 0
5.57885 -19.5145 0
5.57682 -20.2582 0
6.26469 -19.5012 0
6.189 -20.2437 0
5.57682 -20.2582 0
5.57397 -20.9259 0
6.189 -20.2437 0
6.10808 -20.9107 0
6.26469 -19.5012 0
6.189 -20.2437 0
6.96209 -19.4642 0
6.81358 -20.2043 0
6.189 -20.2437 0
6.10808 -20.9107 0
6.81358 -20.2043 0
6.65592 -20.8689 0
5.57397 -20.9259 0
5.57059 -21.5132 0
6.10808 -20.9107 0
6.02198 -21.4986 0
5.57059 -21.5132 0
5.56789 -22.0154 0
6.02198 -21.4986 0
5.93145 -22.0045 0
6.10808 -20.9107 0
6.02198 -21.4986 0
6.65592 -20.8689 0
6.48884 -21.4553 0
6.02198 -21.4986 0
5.93145 -22.0045 0
6.48884 -21.4553 0
6.31211 -21.9617 0
6.96209 -19.4642 0
6.81358 -20.2043 0
7.68075 -19.4041 0
7.45989 -20.1404 0
6.81358 -20.2043 0
6.65592 -20.8689 0
7.45989 -20.1404 0
7.2266 -20.8014 0
7.68075 -19.4041 0
7.45989 -20.1404 0
8.4301 -19.3206 0
8.13647 -20.0521 0
7.45989 -20.1404 0
7.2266 -20.8014 0
8.13647 -20.0521 0
7.82737 -20.7085 0
6.65592 -20.8689 0
6.48884 -21.4553 0
7.2266 -20.8014 0
6.98091 -21.3842 0
6.48884 -21.4553 0
6.31211 -21.9617 0
6.98091 -21.3842 0
6.72234 -21.8881 0
7.2266 -20.8014 0
6.98091 -21.3842 0
7.82737 -20.7085 0
7.50391 -21.287 0
6.98091 -21.3842 0
6.72234 -21.8881 0
7.50391 -21.287 0
7.16749 -21.7866 0
5.56789 -22.0154 0
5.56842 -22.4262 0
5.93145 -22.0045 0
5.83964 -22.4246 0
5.56842 -22.4262 0
5.5756 -22.7358 0
5.83964 -22.4246 0
5.75306 -22.7501 0
5.93145 -22.0045 0
5.83964 -22.4246 0
6.31211 -21.9617 0
6.12625 -22.3892 0
5.83964 -22.4246 0
5.75306 -22.7501 0
6.12625 -22.3892 0
5.93921 -22.7365 0
5.5756 -22.7358 0
5.59143 -22.9307 0
5.75306 -22.7501 0
5.67806 -22.9624 0
5.59143 -22.9307 0
5.61365 -22.9975 0
5.67806 -22.9624 0
5.61365 -23.0372 0
5.75306 -22.7501 0
5.67806 -22.9624 0
5.93921 -22.7365 0
5.76708 -22.9805 0
5.67806 -22.9624 0
5.61365 -23.0372 0
5.76708 -22.9805 0
5.61365 -23.0716 0
6.31211 -21.9617 0
6.12625 -22.3892 0
6.72234 -21.8881 0
6.44909 -22.3151 0
6.12625 -22.3892 0
5.93921 -22.7365 0
6.44909 -22.3151 0
6.15642 -22.68 0
6.72234 -21.8881 0
6.44909 -22.3151 0
7.16749 -21.7866 0
6.81979 -22.2107 0
6.44909 -22.3151 0
6.15642 -22.68 0
6.81979 -22.2107 0
6.45901 -22.5679 0
5.93921 -22.7365 0
5.76708 -22.9805 0
6.15642 -22.68 0
5.86696 -22.982 0
5.76708 -22.9805 0
5.61365 -23.0716 0
5.86696 -22.982 0
5.61365 -23.1138 0
6.15642 -22.68 0
5.86696 -22.982 0
6.45901 -22.5679 0
6.0617 -22.9463 0
5.86696 -22.982 0
5.61365 -23.1138 0
6.0617 -22.9463 0
5.61365 -23.161 0
1.00217 -11.2573 0
1.15714 -12.4382 0
2.18332 -11.2999 0
2.29971 -12.4858 0
1.15714 -12.4382 0
1.32938 -13.5789 0
2.29971 -12.4858 0
2.42913 -13.6317 0
2.18332 -11.2999 0
2.29971 -12.4858 0
3.33471 -11.3294 0
3.41154 -12.5194 0
2.29971 -12.4858 0
2.42913 -13.6317 0
3.41154 -12.5194 0
3.49753 -13.6692 0
1.32938 -13.5789 0
1.51926 -14.675 0
2.42913 -13.6317 0
2.57177 -14.733 0
1.51926 -14.675 0
1.72693 -15.7218 0
2.57177 -14.733 0
2.7277 -15.785 0
2.42913 -13.6317 0
2.57177 -14.733 0
3.49753 -13.6692 0
3.59254 -14.7743 0
2.57177 -14.733 0
2.7277 -15.785 0
3.59254 -14.7743 0
3.69649 -15.83 0
3.33471 -11.3294 0
3.41154 -12.5194 0
4.46535 -11.3457 0
4.50258 -12.5387 0
3.41154 -12.5194 0