# vtk DataFile Version 3.0
#This file was generated by the deal.II library on 2020/9/16 at 9:30:21
ASCII
DATASET UNSTRUCTURED_GRID

POINTS 6144 double
5 0 0
5.0625 0 0
5 0.0625 0
5.0625 0.0625 0
5.0625 0 0
5.125 0 0
5.0625 0.0625 0
5.125 0.0625 0
5 0.0625 0
5.0625 0.0625 0
5 0.125 0
5.0625 0.125 0
5.0625 0.0625 0
5.125 0.0625 0
5.0625 0.125 0
5.125 0.125 0
5.125 0 0
5.1875 0 0
5.125 0.0625 0
5.1875 0.0625 0
5.1875 0 0
5.25 0 0
5.1875 0.0625 0
5.25 0.0625 0
5.125 0.0625 0
5.1875 0.0625 0
5.125 0.125 0
5.1875 0.125 0
5.1875 0.0625 0
5.25 0.0625 0
5.1875 0.125 0
5.25 0.125 0
5 0.125 0
5.0625 0.125 0
5 0.1875 0
5.0625 0.1875 0
5.0625 0.125 0
5.125 0.125 0
5.0625 0.1875 0
5.125 0.1875 0
5 0.1875 0
5.0625 0.1875 0
5 0.25 0
5.0625 0.25 0
5.0625 0.1875 0
5.125 0.1875 0
5.0625 0.25 0
5.125 0.25 0
5.125 0.125 0
5.1875 0.125 0
5.125 0.1875 0
5.1875 0.1875 0
5.1875 0.125 0
5.25 0.125 0
5.1875 0.1875 0
5.25 0.1875 0
5.125 0.1875 0
5.1875 0.1875 0
5.125 0.25 0
5.1875 0.25 0
5.1875 0.1875 0
5.25 0.1875 0
5.1875 0.25 0
5.25 0.25 0
5.25 0 0
5.3125 0 0
5.25 0.0625 0
5.3125 0.0625 0
5.3125 0 0
5.375 0 0
5.3125 0.0625 0
5.375 0.0625 0
5.25 0.0625 0
5.3125 0.0625 0
5.25 0.125 0
5.3125 0.125 0
5.3125 0.0625 0
5.375 0.0625 0
5.3125 0.125 0
5.375 0.125 0
5.375 0 0
5.4375 0 0
5.375 0.0625 0
5.4375 0.0625 0
5.4375 0 0
5.5 0 0
5.4375 0.0625 0
5.5 0.0625 0
5.375 0.0625 0
5.4375 0.0625 0
5.375 0.125 0
5.4375 0.125 0
5.4375 0.0625 0
5.5 0.0625 0
5.4375 0.125 0
5.5 0.125 0
5.25 0.125 0
5.3125 0.125 0
5.25 0.1875 0
5.3125 0.1875 0
5.3125 0.125 0
5.375 0.125 0
5.3125 0.1875 0
5.375 0.1875 0
5.25 0.1875 0
5.3125 0.1875 0
5.25 0.25 0
5.3125 0.25 0
5.3125 0.1875 0
5.375 0.1875 0
5.3125 0.25 0
5.375 0.25 0
5.375 0.125 0
5.4375 0.125 0
5.375 0.1875 0
5.4375 0.1875 0
5.4375 0.125 0
5.5 0.125 0
5.4375 0.1875 0
5.5 0.1875 0
5.375 0.1875 0
5.4375 0.1875 0
5.375 0.25 0
5.4375 0.25 0
5.4375 0.1875 0
5.5 0.1875 0
5.4375 0.25 0
5.5 0.25 0
5 0.25 0
5.0625 0.25 0
5 0.3125 0
5.0625 0.3125 0
5.0625 0.25 0
5.125 0.25 0
5.0625 0.3125 0
5.125 0.3125 0
5 0.3125 0
5.0625 0.3125 0
5 0.375 0
5.0625 0.375 0
5.0625 0.3125 0
5.125 0.3125 0
5.0625 0.375 0
5.125 0.375 0
5.125 0.25 0
5.1875 0.25 0
5.125 0.3125 0
5.1875 0.3125 0
5.1875 0.25 0
5.25 0.25 0
5.1875 0.3125 0
5.25 0.3125 0
5.125 0.3125 0
5.1875 0.3125 0
5.125 0.375 0
5.1875 0.375 0
5.1875 0.3125 0
5.25 0.3125 0
5.1875 0.375 0
5.25 0.375 0
5 0.375 0
5.0625 0.375 0
5 0.4375 0
5.0625 0.4375 0
5.0625 0.375 0
5.125 0.375 0
5.0625 0.4375 0
5.125 0.4375 0
5 0.4375 0
5.0625 0.4375 0
5 0.5 0
5.0625 0.5 0
5.0625 0.4375 0
5.125 0.4375 0
5.0625 0.5 0
5.125 0.5 0
5.125 0.375 0
5.1875 0.375 0
5.125 0.4375 0
5.1875 0.4375 0
5.1875 0.375 0
5.25 0.375 0
5.1875 0.4375 0
5.25 0.4375 0
5.125 0.4375 0
5.1875 0.4375 0
5.125 0.5 0
5.1875 0.5 0
5.1875 0.4375 0
5.25 0.4375 0
5.1875 0.5 0
5.25 0.5 0
5.25 0.25 0
5.3125 0.25 0
5.25 0.3125 0
5.3125 0.3125 0
5.3125 0.25 0
5.375 0.25 0
5.3125 0.3125 0
5.375 0.3125 0
5.25 0.3125 0
5.3125 0.3125 0
5.25 0.375 0
5.3125 0.375 0
5.3125 0.3125 0
5.375 0.3125 0
5.3125 0.375 0
5.375 0.375 0
5.375 0.25 0
5.4375 0.25 0
5.375 0.3125 0
5.4375 0.3125 0
5.4375 0.25 0
5.5 0.25 0
5.4375 0.3125 0
5.5 0.3125 0
5.375 0.3125 0
5.4375 0.3125 0
5.375 0.375 0
5.4375 0.375 0
5.4375 0.3125 0
5.5 0.3125 0
5.4375 0.375 0
5.5 0.375 0
5.25 0.375 0
5.3125 0.375 0
5.25 0.4375 0
5.3125 0.4375 0
5.3125 0.375 0
5.375 0.375 0
5.3125 0.4375 0
5.375 0.4375 0
5.25 0.4375 0
5.3125 0.4375 0
5.25 0.5 0
5.3125 0.5 0
5.3125 0.4375 0
5.375 0.4375 0
5.3125 0.5 0
5.375 0.5 0
5.375 0.375 0
5.4375 0.375 0
5.375 0.4375 0
5.4375 0.4375 0
5.4375 0.375 0
5.5 0.375 0
5.4375 0.4375 0
5.5 0.4375 0
5.375 0.4375 0
5.4375 0.4375 0
5.375 0.5 0
5.4375 0.5 0
5.4375 0.4375 0
5.5 0.4375 0
5.4375 0.5 0
5.5 0.5 0
5.5 0 0
5.5625 0 0
5.5 0.0625 0
5.5625 0.0625 0
5.5625 0 0
5.625 0 0
5.5625 0.0625 0
5.625 0.0625 0
5.5 0.0625 0
5.5625 0.0625 0
5.5 0.125 0
5.5625 0.125 0
5.5625 0.0625 0
5.625 0.0625 0
5.5625 0.125 0
5.625 0.125 0
5.625 0 0
5.6875 0 0
5.625 0.0625 0
5.6875 0.0625 0
5.6875 0 0
5.75 0 0
5.6875 0.0625 0
5.75 0.0625 0
5.625 0.0625 0
5.6875 0.0625 0
5.625 0.125 0
5.6875 0.125 0
5.6875 0.0625 0
5.75 0.0625 0
5.6875 0.125 0
5.75 0.125 0
5.5 0.125 0
5.5625 0.125 0
5.5 0.1875 0
5.5625 0.1875 0
5.5625 0.125 0
5.625 0.125 0
5.5625 0.1875 0
5.625 0.1875 0
5.5 0.1875 0
5.5625 0.1875 0
5.5 0.25 0
5.5625 0.25 0
5.5625 0.1875 0
5.625 0.1875 0
5.5625 0.25 0
5.625 0.25 0
5.625 0.125 0
5.6875 0.125 0
5.625 0.1875 0
5.6875 0.1875 0
5.6875 0.125 0
5.75 0.125 0
5.6875 0.1875 0
5.75 0.1875 0
5.625 0.1875 0
5.6875 0.1875 0
5.625 0.25 0
5.6875 0.25 0
5.6875 0.1875 0
5.75 0.1875 0
5.6875 0.25 0
5.75 0.25 0
5.75 0 0
5.8125 0 0
5.75 0.0625 0
5.8125 0.0625 0
5.8125 0 0
5.875 0 0
5.8125 0.0625 0
5.875 0.0625 0
5.75 0.0625 0
5.8125 0.0625 0
5.75 0.125 0
5.8125 0.125 0
5.8125 0.0625 0
5.875 0.0625 0
5.8125 0.125 0
5.875 0.125 0
5.875 0 0
5.9375 0 0
5.875 0.0625 0
5.9375 0.0625 0
5.9375 0 0
6 0 0
5.9375 0.0625 0
6 0.0625 0
5.875 0.0625 0
5.9375 0.0625 0
5.875 0.125 0
5.9375 0.125 0
5.9375 0.0625 0
6 0.0625 0
5.9375 0.125 0
6 0.125 0
5.75 0.125 0
5.8125 0.125 0
5.75 0.1875 0
5.8125 0.1875 0
5.8125 0.125 0
5.875 0.125 0
5.8125 0.1875 0
5.875 0.1875 0
5.75 0.1875 0
5.8125 0.1875 0
5.75 0.25 0
5.8125 0.25 0
5.8125 0.1875 0
5.875 0.1875 0
5.8125 0.25 0
5.875 0.25 0
5.875 0.125 0
5.9375 0.125 0
5.875 0.1875 0
5.9375 0.1875 0
5.9375 0.125 0
6 0.125 0
5.9375 0.1875 0
6 0.1875 0
5.875 0.1875 0
5.9375 0.1875 0
5.875 0.25 0
5.9375 0.25 0
5.9375 0.1875 0
6 0.1875 0
5.9375 0.25 0
6 0.25 0
5.5 0.25 0
5.5625 0.25 0
5.5 0.3125 0
5.5625 0.3125 0
5.5625 0.25 0
5.625 0.25 0
5.5625 0.3125 0
5.625 0.3125 0
5.5 0.3125 0
5.5625 0.3125 0
5.5 0.375 0
5.5625 0.375 0
5.5625 0.3125 0
5.625 0.3125 0
5.5625 0.375 0
5.625 0.375 0
5.625 0.25 0
5.6875 0.25 0
5.625 0.3125 0
5.6875 0.3125 0
5.6875 0.25 0
5.75 0.25 0
5.6875 0.3125 0
5.75 0.3125 0
5.625 0.3125 0
5.6875 0.3125 0
5.625 0.375 0
5.6875 0.375 0
5.6875 0.3125 0
5.75 0.3125 0
5.6875 0.375 0
5.75 0.375 0
5.5 0.375 0
5.5625 0.375 0
5.5 0.4375 0
5.5625 0.4375 0
5.5625 0.375 0
5.625 0.375 0
5.5625 0.4375 0
5.625 0.4375 0
5.5 0.4375 0
5.5625 0.4375 0
5.5 0.5 0
5.5625 0.5 0
5.5625 0.4375 0
5.625 0.4375 0
5.5625 0.5 0
5.625 0.5 0
5.625 0.375 0
5.6875 0.375 0
5.625 0.4375 0
5.6875 0.4375 0
5.6875 0.375 0
5.75 0.375 0
5.6875 0.4375 0
5.75 0.4375 0
5.625 0.4375 0
5.6875 0.4375 0
5.625 0.5 0
5.6875 0.5 0
5.6875 0.4375 0
5.75 0.4375 0
5.6875 0.5 0
5.75 0.5 0
5.75 0.25 0
5.8125 0.25 0
5.75 0.3125 0
5.8125 0.3125 0
5.8125 0.25 0
5.875 0.25 0
5.8125 0.3125 0
5.875 0.3125 0
5.75 0.3125 0
5.8125 0.3125 0
5.75 0.375 0
5.8125 0.375 0
5.8125 0.3125 0
5.875 0.3125 0
5.8125 0.375 0
5.875 0.375 0
5.875 0.25 0
5.9375 0.25 0
5.875 0.3125 0
5.9375 0.3125 0
5.9375 0.25 0
6 0.25 0
5.9375 0.3125 0
6 0.3125 0
5.875 0.3125 0
5.9375 0.3125 0
5.875 0.375 0
5.9375 0.375 0
5.9375 0.3125 0
6 0.3125 0
5.9375 0.375 0
6 0.375 0
5.75 0.375 0
5.8125 0.375 0
5.75 0.4375 0
5.8125 0.4375 0
5.8125 0.375 0
5.875 0.375 0
5.8125 0.4375 0
5.875 0.4375 0
5.75 0.4375 0
5.8125 0.4375 0
5.75 0.5 0
5.8125 0.5 0
5.8125 0.4375 0
5.875 0.4375 0
5.8125 0.5 0
5.875 0.5 0
5.875 0.375 0
5.9375 0.375 0
5.875 0.4375 0
5.9375 0.4375 0
5.9375 0.375 0
6 0.375 0
5.9375 0.4375 0
6 0.4375 0
5.875 0.4375 0
5.9375 0.4375 0
5.875 0.5 0
5.9375 0.5 0
5.9375 0.4375 0
6 0.4375 0
5.9375 0.5 0
6 0.5 0
5 0.5 0
5.0625 0.5 0
5 0.5625 0
5.0625 0.5625 0
5.0625 0.5 0
5.125 0.5 0
5.0625 0.5625 0
5.125 0.5625 0
5 0.5625 0
5.0625 0.5625 0
5 0.625 0
5.0625 0.625 0
5.0625 0.5625 0
5.125 0.5625 0
5.0625 0.625 0
5.125 0.625 0
5.125 0.5 0
5.1875 0.5 0
5.125 0.5625 0
5.1875 0.5625 0
5.1875 0.5 0
5.25 0.5 0
5.1875 0.5625 0
5.25 0.5625 0
5.125 0.5625 0
5.1875 0.5625 0
5.125 0.625 0
5.1875 0.625 0
5.1875 0.5625 0
5.25 0.5625 0
5.1875 0.625 0
5.25 0.625 0
5 0.625 0
5.0625 0.625 0
5 0.6875 0
5.0625 0.6875 0
5.0625 0.625 0
5.125 0.625 0
5.0625 0.6875 0
5.125 0.6875 0
5 0.6875 0
5.0625 0.6875 0
5 0.75 0
5.0625 0.75 0
5.0625 0.6875 0
5.125 0.6875 0
5.0625 0.75 0
5.125 0.75 0
5.125 0.625 0
5.1875 0.625 0
5.125 0.6875 0
5.1875 0.6875 0
5.1875 0.625 0
5.25 0.625 0
5.1875 0.6875 0
5.25 0.6875 0
5.125 0.6875 0
5.1875 0.6875 0
5.125 0.75 0
5.1875 0.75 0
5.1875 0.6875 0
5.25 0.6875 0
5.1875 0.75 0
5.25 0.75 0
5.25 0.5 0
5.3125 0.5 0
5.25 0.5625 0
5.3125 0.5625 0
5.3125 0.5 0
5.375 0.5 0
5.3125 0.5625 0
5.375 0.5625 0
5.25 0.5625 0
5.3125 0.5625 0
5.25 0.625 0
5.3125 0.625 0
5.3125 0.5625 0
5.375 0.5625 0
5.3125 0.625 0
5.375 0.625 0
5.375 0.5 0
5.4375 0.5 0
5.375 0.5625 0
5.4375 0.5625 0
5.4375 0.5 0
5.5 0.5 0
5.4375 0.5625 0
5.5 0.5625 0
5.375 0.5625 0
5.4375 0.5625 0
5.375 0.625 0
5.4375 0.625 0
5.4375 0.5625 0
5.5 0.5625 0
5.4375 0.625 0
5.5 0.625 0
5.25 0.625 0
5.3125 0.625 0
5.25 0.6875 0
5.3125 0.6875 0
5.3125 0.625 0
5.375 0.625 0
5.3125 0.6875 0
5.375 0.6875 0
5.25 0.6875 0
5.3125 0.6875 0
5.25 0.75 0
5.3125 0.75 0
5.3125 0.6875 0
5.375 0.6875 0
5.3125 0.75 0
5.375 0.75 0
5.375 0.625 0
5.4375 0.625 0
5.375 0.6875 0
5.4375 0.6875 0
5.4375 0.625 0
5.5 0.625 0
5.4375 0.6875 0
5.5 0.6875 0
5.375 0.6875 0
5.4375 0.6875 0
5.375 0.75 0
5.4375 0.75 0
5.4375 0.6875 0
5.5 0.6875 0
5.4375 0.75 0
5.5 0.75 0
5 0.75 0
5.0625 0.75 0
5 0.8125 0
5.0625 0.8125 0
5.0625 0.75 0
5.125 0.75 0
5.0625 0.8125 0
5.125 0.8125 0
5 0.8125 0
5.0625 0.8125 0
5 0.875 0
5.0625 0.875 0
5.0625 0.8125 0
5.125 0.8125 0
5.0625 0.875 0
5.125 0.875 0
5.125 0.75 0
5.1875 0.75 0
5.125 0.8125 0
5.1875 0.8125 0
5.1875 0.75 0
5.25 0.75 0
5.1875 0.8125 0
5.25 0.8125 0
5.125 0.8125 0
5.1875 0.8125 0
5.125 0.875 0
5.1875 0.875 0
5.1875 0.8125 0
5.25 0.8125 0
5.1875 0.875 0
5.25 0.875 0
5 0.875 0
5.0625 0.875 0
5 0.9375 0
5.0625 0.9375 0
5.0625 0.875 0
5.125 0.875 0
5.0625 0.9375 0
5.125 0.9375 0
5 0.9375 0
5.0625 0.9375 0
5 1 0
5.0625 1 0
5.0625 0.9375 0
5.125 0.9375 0
5.0625 1 0
5.125 1 0
5.125 0.875 0
5.1875 0.875 0
5.125 0.9375 0
5.1875 0.9375 0
5.1875 0.875 0
5.25 0.875 0
5.1875 0.9375 0
5.25 0.9375 0
5.125 0.9375 0
5.1875 0.9375 0
5.125 1 0
5.1875 1 0
5.1875 0.9375 0
5.25 0.9375 0
5.1875 1 0
[...]
POINT_DATA 6144
VECTORS displacements double
36.2232 -41.19 0
36.5289 -38.936 0
33.9906 -41.2914 0
34.2871 -39.0342 0
36.5289 -38.936 0
36.8321 -36.6706 0
34.2871 -39.0342 0
34.5708 -36.7672 0
33.9906 -41.2914 0
34.2871 -39.0342 0
32.1726 -41.3624 0
32.3914 -39.1158 0
34.2871 -39.0342 0
34.5708 -36.7672 0
32.3914 -39.1158 0
32.5915 -36.8591 0
36.8321 -36.6706 0
37.1361 -34.3769 0
34.5708 -36.7672 0
34.8394 -34.4724 0
37.1361 -34.3769 0
37.435 -32.0449 0
34.8394 -34.4724 0
35.1025 -32.1366 0
34.5708 -36.7672 0
34.8394 -34.4724 0
32.5915 -36.8591 0
32.8053 -34.5771 0
34.8394 -34.4724 0
35.1025 -32.1366 0
32.8053 -34.5771 0
33.0117 -32.2306 0
32.1726 -41.3624 0
32.3914 -39.1158 0
30.3141 -41.4709 0
30.4892 -39.224 0
32.3914 -39.1158 0
32.5915 -36.8591 0
30.4892 -39.224 0
30.6737 -36.9753 0
30.3141 -41.4709 0
30.4892 -39.224 0
28.4123 -41.5575 0
28.595 -39.3407 0
30.4892 -39.224 0
30.6737 -36.9753 0
28.595 -39.3407 0
28.7197 -37.0779 0
32.5915 -36.8591 0
32.8053 -34.5771 0
30.6737 -36.9753 0
30.8247 -34.6666 0
32.8053 -34.5771 0
33.0117 -32.2306 0
30.8247 -34.6666 0
30.9822 -32.3416 0
30.6737 -36.9753 0
30.8247 -34.6666 0
28.7197 -37.0779 0
28.865 -34.7696 0
30.8247 -34.6666 0
30.9822 -32.3416 0
28.865 -34.7696 0
28.9744 -32.4417 0
37.435 -32.0449 0
37.7311 -29.6684 0
35.1025 -32.1366 0
35.3521 -29.7611 0
37.7311 -29.6684 0
38.0113 -27.2539 0
35.3521 -29.7611 0
35.6091 -27.3383 0
35.1025 -32.1366 0
35.3521 -29.7611 0
33.0117 -32.2306 0
33.2193 -29.8567 0
35.3521 -29.7611 0
35.6091 -27.3383 0
33.2193 -29.8567 0
33.4281 -27.4118 0
38.0113 -27.2539 0
38.2905 -24.8054 0
35.6091 -27.3383 0
35.8453 -24.8965 0
38.2905 -24.8054 0
38.5421 -22.3391 0
35.8453 -24.8965 0
36.11 -22.4154 0
35.6091 -27.3383 0
35.8453 -24.8965 0
33.4281 -27.4118 0
33.6204 -24.9807 0
35.8453 -24.8965 0
36.11 -22.4154 0
33.6204 -24.9807 0
33.8836 -22.4823 0
33.0117 -32.2306 0
33.2193 -29.8567 0
30.9822 -32.3416 0
31.1287 -29.941 0
33.2193 -29.8567 0
33.4281 -27.4118 0
31.1287 -29.941 0
31.2642 -27.4938 0
30.9822 -32.3416 0
31.1287 -29.941 0
28.9744 -32.4417 0
29.0911 -30.0259 0
31.1287 -29.941 0
31.2642 -27.4938 0
29.0911 -30.0259 0
29.2981 -27.5597 0
33.4281 -27.4118 0
33.6204 -24.9807 0
31.2642 -27.4938 0
31.4782 -25.0596 0
33.6204 -24.9807 0
33.8836 -22.4823 0
31.4782 -25.0596 0
31.59 -22.5526 0
31.2642 -27.4938 0
31.4782 -25.0596 0
29.2981 -27.5597 0
29.4582 -25.3214 0
31.4782 -25.0596 0
31.59 -22.5526 0
29.4582 -25.3214 0
29.5586 -23.0106 0
28.4123 -41.5575 0
28.595 -39.3407 0
26.3391 -41.4029 0
26.4683 -39.2138 0
28.595 -39.3407 0
28.7197 -37.0779 0
26.4683 -39.2138 0
26.6209 -36.9927 0
26.3391 -41.4029 0
26.4683 -39.2138 0
24.5134 -41.4129 0
24.6338 -39.2474 0
26.4683 -39.2138 0
26.6209 -36.9927 0
24.6338 -39.2474 0
24.7397 -37.0576 0
28.7197 -37.0779 0
28.865 -34.7696 0
26.6209 -36.9927 0
26.7185 -34.7582 0
28.865 -34.7696 0
28.9744 -32.4417 0
26.7185 -34.7582 0
26.8468 -32.4585 0
26.6209 -36.9927 0
26.7185 -34.7582 0
24.7397 -37.0576 0
24.8842 -34.8206 0
26.7185 -34.7582 0
26.8468 -32.4585 0
24.8842 -34.8206 0
24.9621 -32.554 0
24.5134 -41.4129 0
24.6338 -39.2474 0
21.6121 -41.4351 0
22.8364 -39.2646 0
24.6338 -39.2474 0
24.7397 -37.0576 0
22.8364 -39.2646 0
22.9308 -37.0887 0
21.6121 -41.4351 0
22.8364 -39.2646 0
20.9981 -41.4103 0
21.0555 -39.2989 0
22.8364 -39.2646 0
22.9308 -37.0887 0
21.0555 -39.2989 0
21.1481 -37.0877 0
24.7397 -37.0576 0
24.8842 -34.8206 0
22.9308 -37.0887 0
23.0026 -34.8702 0
24.8842 -34.8206 0
24.9621 -32.554 0
23.0026 -34.8702 0
23.0815 -32.574 0
22.9308 -37.0887 0
23.0026 -34.8702 0
21.1481 -37.0877 0
21.1997 -34.8851 0
23.0026 -34.8702 0
23.0815 -32.574 0
21.1997 -34.8851 0
21.2201 -32.6045 0
28.9744 -32.4417 0
29.0911 -30.0259 0
26.8468 -32.4585 0
26.9381 -30.2072 0
29.0911 -30.0259 0
29.2981 -27.5597 0
26.9381 -30.2072 0
27.3187 -27.8787 0
26.8468 -32.4585 0
26.9381 -30.2072 0
24.9621 -32.554 0
25.0581 -30.2356 0
26.9381 -30.2072 0
27.3187 -27.8787 0
25.0581 -30.2356 0
25.1068 -27.9092 0
29.2981 -27.5597 0
29.4582 -25.3214 0
27.3187 -27.8787 0
27.529 -25.3699 0
29.4582 -25.3214 0
29.5586 -23.0106 0
27.529 -25.3699 0
27.5952 -23.0571 0
27.3187 -27.8787 0
27.529 -25.3699 0
25.1068 -27.9092 0
25.1852 -25.4538 0
27.529 -25.3699 0
27.5952 -23.0571 0
25.1852 -25.4538 0
25.2419 -23.0971 0
24.9621 -32.554 0
25.0581 -30.2356 0
23.0815 -32.574 0
23.1375 -30.2855 0
25.0581 -30.2356 0
25.1068 -27.9092 0
23.1375 -30.2855 0
23.1989 -27.9138 0
23.0815 -32.574 0
23.1375 -30.2855 0
21.2201 -32.6045 0
21.2565 -30.2757 0
23.1375 -30.2855 0
23.1989 -27.9138 0
21.2565 -30.2757 0
21.27 -27.9346 0
25.1068 -27.9092 0
25.1852 -25.4538 0
23.1989 -27.9138 0
23.2307 -25.5102 0
25.1852 -25.4538 0
25.2419 -23.0971 0
23.2307 -25.5102 0
23.2675 -23.106 0
23.1989 -27.9138 0
23.2307 -25.5102 0
21.27 -27.9346 0
21.2693 -25.5188 0
23.2307 -25.5102 0
23.2675 -23.106 0
21.2693 -25.5188 0
21.2918 -23.1267 0
38.5421 -22.3391 0
38.8133 -19.8694 0
36.11 -22.4154 0
36.3338 -19.9548 0
38.8133 -19.8694 0
39.0707 -17.3735 0
36.3338 -19.9548 0
36.5831 -17.4573 0
36.11 -22.4154 0
36.3338 -19.9548 0
33.8836 -22.4823 0
34.0777 -19.994 0
36.3338 -19.9548 0
36.5831 -17.4573 0
34.0777 -19.994 0
34.2706 -17.5607 0
39.0707 -17.3735 0
39.3447 -14.8552 0
36.5831 -17.4573 0
36.8142 -14.9358 0
39.3447 -14.8552 0
39.6451 -12.277 0
36.8142 -14.9358 0
37.027 -12.3685 0
36.5831 -17.4573 0
36.8142 -14.9358 0
34.2706 -17.5607 0
34.4739 -14.9864 0
36.8142 -14.9358 0
37.027 -12.3685 0
34.4739 -14.9864 0
34.6642 -12.4147 0
33.8836 -22.4823 0
34.0777 -19.994 0
31.59 -22.5526 0
31.9707 -20.0256 0
34.0777 -19.994 0
34.2706 -17.5607 0
31.9707 -20.0256 0
32.0993 -17.5872 0
31.59 -22.5526 0
31.9707 -20.0256 0
29.5586 -23.0106 0
29.8645 -20.2015 0
31.9707 -20.0256 0
32.0993 -17.5872 0
29.8645 -20.2015 0
29.9753 -17.6049 0
34.2706 -17.5607 0
34.4739 -14.9864 0
32.0993 -17.5872 0
32.2274 -15.1042 0
34.4739 -14.9864 0
34.6642 -12.4147 0
32.2274 -15.1042 0
32.3465 -12.4155 0
32.0993 -17.5872 0
32.2274 -15.1042 0
29.9753 -17.6049 0
30.0619 -15.0951 0
32.2274 -15.1042 0
32.3465 -12.4155 0
30.0619 -15.0951 0
30.1352 -12.5663 0
39.6451 -12.277 0
39.9305 -9.64466 0
37.027 -12.3685 0
37.2643 -9.7133 0
39.9305 -9.64466 0
40.3072 -6.90055 0
37.2643 -9.7133 0
37.4212 -7.01744 0
37.027 -12.3685 0
37.2643 -9.7133 0
34.6642 -12.4147 0
34.8323 -9.74234 0
37.2643 -9.7133 0
37.4212 -7.01744 0
34.8323 -9.74234 0
34.9621 -7.0047 0
40.3072 -6.90055 0
40.7244 -3.99146 0
37.4212 -7.01744 0
37.4922 -3.9231 0
40.7244 -3.99146 0
40.9684 0 0
37.4922 -3.9231 0
37.6133 -0.862573 0
37.4212 -7.01744 0
37.4922 -3.9231 0
34.9621 -7.0047 0
34.9532 -4.08945 0
37.4922 -3.9231 0
37.6133 -0.862573 0
34.9532 -4.08945 0
35.0383 -1.4292 0
34.6642 -12.4147 0
34.8323 -9.74234 0
32.3465 -12.4155 0
32.4512 -9.78135 0
34.8323 -9.74234 0
34.9621 -7.0047 0
32.4512 -9.78135 0
32.5133 -7.0371 0
32.3465 -12.4155 0
32.4512 -9.78135 0
30.1352 -12.5663 0
30.2142 -9.80129 0
32.4512 -9.78135 0
32.5133 -7.0371 0
30.2142 -9.80129 0
30.2163 -7.18961 0
34.9621 -7.0047 0
34.9532 -4.08945 0
32.5133 -7.0371 0
32.5555 -4.36121 0
34.9532 -4.08945 0
35.0383 -1.4292 0
32.5555 -4.36121 0
32.6533 -1.80762 0
32.5133 -7.0371 0
32.5555 -4.36121 0
30.2163 -7.18961 0
30.2476 -4.61785 0
32.5555 -4.36121 0
32.6533 -1.80762 0
30.2476 -4.61785 0
30.282 -2.07006 0
29.5586 -23.0106 0
29.8645 -20.2015 0
27.5952 -23.0571 0
27.6677 -20.236 0
29.8645 -20.2015 0
29.9753 -17.6049 0
27.6677 -20.236 0
27.728 -17.6331 0
27.5952 -23.0571 0
27.6677 -20.236 0
25.2419 -23.0971 0
25.2577 -20.2812 0
27.6677 -20.236 0
27.728 -17.6331 0
25.2577 -20.2812 0
25.7169 -17.6527 0
29.9753 -17.6049 0
30.0619 -15.0951 0
27.728 -17.6331 0
27.9052 -15.0927 0
30.0619 -15.0951 0
30.1352 -12.5663 0
27.9052 -15.0927 0
27.9711 -12.5594 0
27.728 -17.6331 0
27.9052 -15.0927 0
25.7169 -17.6527 0
25.7739 -15.1843 0
27.9052 -15.0927 0
27.9711 -12.5594 0
25.7739 -15.1843 0
25.7895 -12.5717 0
25.2419 -23.0971 0
25.2577 -20.2812 0
23.2675 -23.106 0
23.3566 -20.5765 0
25.2577 -20.2812 0
25.7169 -17.6527 0
23.3566 -20.5765 0
23.4322 -17.9453 0
23.2675 -23.106 0
23.3566 -20.5765 0
21.2918 -23.1267 0
21.2386 -20.6087 0
23.3566 -20.5765 0
23.4322 -17.9453 0
21.2386 -20.6087 0
21.6116 -17.8692 0
25.7169 -17.6527 0
25.7739 -15.1843 0
23.4322 -17.9453 0
23.6856 -15.2013 0
25.7739 -15.1843 0
25.7895 -12.5717 0
23.6856 -15.2013 0
23.6475 -12.6735 0
23.4322 -17.9453 0
23.6856 -15.2013 0
21.6116 -17.8692 0
21.5442 -15.2872 0
23.6856 -15.2013 0
23.6475 -12.6735 0
21.5442 -15.2872 0
21.486 -12.7546 0
30.1352 -12.5663 0
30.2142 -9.80129 0
27.9711 -12.5594 0
27.9817 -9.91412 0
30.2142 -9.80129 0
30.2163 -7.18961 0
27.9817 -9.91412 0
27.9859 -7.35565 0
27.9711 -12.5594 0
27.9817 -9.91412 0
25.7895 -12.5717 0
25.7778 -10.0478 0
27.9817 -9.91412 0
27.9859 -7.35565 0
25.7778 -10.0478 0
25.7814 -7.52351 0
30.2163 -7.18961 0
30.2476 -4.61785 0
27.9859 -7.35565 0
28.0161 -4.84625 0
30.2476 -4.61785 0
30.282 -2.07006 0
28.0161 -4.84625 0
28.0064 -2.30709 0
27.9859 -7.35565 0
28.0161 -4.84625 0
25.7814 -7.52351 0
25.7717 -5.00788 0
28.0161 -4.84625 0
28.0064 -2.30709 0
25.7717 -5.00788 0
25.8277 -2.62898 0
25.7895 -12.5717 0
25.7778 -10.0478 0
23.6475 -12.6735 0
23.6077 -10.1593 0
25.7778 -10.0478 0
25.7814 -7.52351 0
23.6077 -10.1593 0
23.5746 -7.6556 0
23.6475 -12.6735 0
23.6077 -10.1593 0
21.486 -12.7546 0
21.4434 -10.2598 0
23.6077 -10.1593 0
23.5746 -7.6556 0
21.4434 -10.2598 0
21.4166 -7.78551 0
25.7814 -7.52351 0
25.7717 -5.00788 0
23.5746 -7.6556 0
23.5873 -5.19831 0
25.7717 -5.00788 0
25.8277 -2.62898 0
23.5873 -5.19831 0
23.6499 -2.90664 0
23.5746 -7.6556 0
23.5873 -5.19831 0
21.4166 -7.78551 0
21.4342 -5.38941 0
23.5873 -5.19831 0
23.6499 -2.90664 0
21.4342 -5.38941 0
21.4906 -3.13299 0
20.9981 -41.4103 0
21.0555 -39.2989 0
19.3692 -41.3723 0
19.3658 -39.271 0
21.0555 -39.2989 0
21.1481 -37.0877 0
19.3658 -39.271 0
19.3804 -37.1045 0
19.3692 -41.3723 0
19.3658 -39.271 0
17.7876 -41.3201 0
17.6933 -39.2149 0
19.3658 -39.271 0
19.3804 -37.1045 0
17.6933 -39.2149 0
17.6189 -37.0647 0
21.1481 -37.0877 0
21.1997 -34.8851 0
19.3804 -37.1045 0
19.3606 -34.8528 0
21.1997 -34.8851 0
21.2201 -32.6045 0
19.3606 -34.8528 0
19.38 -32.6012 0
19.3804 -37.1045 0
19.3606 -34.8528 0
17.6189 -37.0647 0
17.5754 -34.8351 0
19.3606 -34.8528 0
19.38 -32.6012 0
17.5754 -34.8351 0
17.4851 -32.5519 0
17.7876 -41.3201 0
17.6933 -39.2149 0
16.0812 -41.2449 0
15.9802 -39.1479 0
17.6933 -39.2149 0
17.6189 -37.0647 0
15.9802 -39.1479 0
15.8432 -36.9824 0
16.0812 -41.2449 0
15.9802 -39.1479 0
14.3513 -41.158 0
14.1811 -39.0495 0
15.9802 -39.1479 0
15.8432 -36.9824 0
14.1811 -39.0495 0
14.048 -36.8982 0
17.6189 -37.0647 0
17.5754 -34.8351 0
15.8432 -36.9824 0
15.7375 -34.7754 0
17.5754 -34.8351 0
17.4851 -32.5519 0
15.7375 -34.7754 0
15.6531 -32.5078 0
15.8432 -36.9824 0
15.7375 -34.7754 0
14.048 -36.8982 0
13.8751 -34.6787 0
15.7375 -34.7754 0
15.6531 -32.5078 0
13.8751 -34.6787 0
13.7444 -32.4272 0
21.2201 -32.6045 0
21.2565 -30.2757 0
19.38 -32.6012 0
19.3592 -30.2755 0
21.2565 -30.2757 0
21.27 -27.9346 0
19.3592 -30.2755 0
19.355 -27.9051 0
19.38 -32.6012 0
19.3592 -30.2755 0
17.4851 -32.5519 0
17.4794 -30.2521 0
19.3592 -30.2755 0
19.355 -27.9051 0
17.4794 -30.2521 0
17.4408 -27.8646 0
21.27 -27.9346 0
21.2693 -25.5188 0
19.355 -27.9051 0
19.3608 -25.5289 0
21.2693 -25.5188 0
21.2918 -23.1267 0
19.3608 -25.5289 0
19.3497 -23.0917 0
19.355 -27.9051 0
19.3608 -25.5289 0
17.4408 -27.8646 0
17.4097 -25.4866 0
19.3608 -25.5289 0
19.3497 -23.0917 0
17.4097 -25.4866 0
17.4199 -23.0009 0
17.4851 -32.5519 0
17.4794 -30.2521 0
15.6531 -32.5078 0
15.4971 -30.1974 0
17.4794 -30.2521 0
17.4408 -27.8646 0
15.4971 -30.1974 0
15.4587 -27.8061 0
15.6531 -32.5078 0
15.4971 -30.1974 0
13.7444 -32.4272 0
13.636 -30.1025 0
15.4971 -30.1974 0
15.4587 -27.8061 0
13.636 -30.1025 0
13.4746 -27.7732 0
17.4408 -27.8646 0
17.4097 -25.4866 0
15.4587 -27.8061 0
15.3995 -25.4363 0
17.4097 -25.4866 0
17.4199 -23.0009 0
15.3995 -25.4363 0
15.2764 -23.0041 0
15.4587 -27.8061 0
15.3995 -25.4363 0
13.4746 -27.7732 0
13.3143 -25.4175 0
15.3995 -25.4363 0
15.2764 -23.0041 0
13.3143 -25.4175 0
13.1752 -23.0149 0
14.3513 -41.158 0
14.1811 -39.0495 0
12.5536 -41.0528 0
12.356 -38.9419 0
14.1811 -39.0495 0
14.048 -36.8982 0
12.356 -38.9419 0
12.1552 -36.7831 0
12.5536 -41.0528 0
12.356 -38.9419 0
10.6994 -40.9372 0
10.461 -38.8339 0
12.356 -38.9419 0
12.1552 -36.7831 0
10.461 -38.8339 0
10.2248 -36.6923 0
14.048 -36.8982 0
13.8751 -34.6787 0
12.1552 -36.7831 0
11.9832 -34.58 0
13.8751 -34.6787 0
13.7444 -32.4272 0
11.9832 -34.58 0
11.7858 -32.3417 0
12.1552 -36.7831 0
11.9832 -34.58 0
10.2248 -36.6923 0
9.98855 -34.5081 0
11.9832 -34.58 0
11.7858 -32.3417 0
9.98855 -34.5081 0
9.77329 -32.2805 0
10.6994 -40.9372 0
10.461 -38.8339 0
8.75043 -40.8448 0
8.48211 -38.744 0
10.461 -38.8339 0
10.2248 -36.6923 0
8.48211 -38.744 0
8.2204 -36.6067 0
8.75043 -40.8448 0
8.48211 -38.744 0
6.72964 -40.75 0
6.45092 -38.6533 0
8.48211 -38.744 0
8.2204 -36.6067 0
6.45092 -38.6533 0
6.19899 -36.522 0
10.2248 -36.6923 0
9.98855 -34.5081 0
8.2204 -36.6067 0
7.96974 -34.4428 0
9.98855 -34.5081 0
9.77329 -32.2805 0
7.96974 -34.4428 0
7.73365 -32.2129 0
8.2204 -36.6067 0
7.96974 -34.4428 0
6.19899 -36.522 0
6.01706 -34.4221 0
7.96974 -34.4428 0
7.73365 -32.2129 0
6.01706 -34.4221 0
5.75554 -32.191 0
13.7444 -32.4272 0
13.636 -30.1025 0
11.7858 -32.3417 0
11.5948 -30.0681 0
13.636 -30.1025 0
13.4746 -27.7732 0
11.5948 -30.0681 0
11.4241 -27.7436 0
11.7858 -32.3417 0
11.5948 -30.0681 0
9.77329 -32.2805 0
9.55643 -30.0289 0
11.5948 -30.0681 0
11.4241 -27.7436 0
9.55643 -30.0289 0
9.34979 -27.7035 0
13.4746 -27.7732 0
13.3143 -25.4175 0
11.4241 -27.7436 0
11.2482 -25.3923 0
13.3143 -25.4175 0
13.1752 -23.0149 0
11.2482 -25.3923 0
11.1207 -23.0442 0
11.4241 -27.7436 0
11.2482 -25.3923 0
9.34979 -27.7035 0
9.21992 -25.4076 0
11.2482 -25.3923 0
11.1207 -23.0442 0
9.21992 -25.4076 0
9.03351 -23.0185 0
9.77329 -32.2805 0
9.55643 -30.0289 0
7.73365 -32.2129 0
7.57932 -30.0211 0
9.55643 -30.0289 0
9.34979 -27.7035 0
7.57932 -30.0211 0
7.36811 -27.7099 0
7.73365 -32.2129 0
7.57932 -30.0211 0
5.75554 -32.191 0
5.42674 -29.9485 0
7.57932 -30.0211 0
7.36811 -27.7099 0
5.42674 -29.9485 0
5.106 -27.6284 0
9.34979 -27.7035 0
9.21992 -25.4076 0
7.36811 -27.7099 0
7.10207 -25.3562 0
9.21992 -25.4076 0
9.03351 -23.0185 0
7.10207 -25.3562 0
6.85963 -22.9587 0
7.36811 -27.7099 0
7.10207 -25.3562 0
5.106 -27.6284 0
4.81988 -25.2669 0
7.10207 -25.3562 0
6.85963 -22.9587 0
4.81988 -25.2669 0
4.5447 -22.8788 0
21.2918 -23.1267 0
21.2386 -20.6087 0
19.3497 -23.0917 0
19.4991 -20.4688 0
21.2386 -20.6087 0
21.6116 -17.8692 0
19.4991 -20.4688 0
19.4221 -17.9141 0
19.3497 -23.0917 0
19.4991 -20.4688 0
17.4199 -23.0009 0
17.3211 -20.4964 0
19.4991 -20.4688 0
19.4221 -17.9141 0
17.3211 -20.4964 0
17.2375 -17.9684 0
21.6116 -17.8692 0
21.5442 -15.2872 0
19.4221 -17.9141 0
19.3563 -15.3601 0
21.5442 -15.2872 0
21.486 -12.7546 0
19.3563 -15.3601 0
19.3007 -12.8265 0
19.4221 -17.9141 0
19.3563 -15.3601 0
17.2375 -17.9684 0
17.1565 -15.4189 0
19.3563 -15.3601 0
19.3007 -12.8265 0
17.1565 -15.4189 0
17.1077 -12.9056 0
17.4199 -23.0009 0
17.3211 -20.4964 0
15.2764 -23.0041 0
15.1706 -20.5323 0
17.3211 -20.4964 0
17.2375 -17.9684 0
15.1706 -20.5323 0
15.0681 -18.0155 0
15.2764 -23.0041 0
15.1706 -20.5323 0
13.1752 -23.0149 0
13.0549 -20.5699 0
15.1706 -20.5323 0
15.0681 -18.0155 0
13.0549 -20.5699 0
12.9455 -18.0683 0
17.2375 -17.9684 0
17.1565 -15.4189 0
15.0681 -18.0155 0
14.9908 -15.489 0
17.1565 -15.4189 0
17.1077 -12.9056 0
14.9908 -15.489 0
14.9619 -13.0003 0
15.0681 -18.0155 0
14.9908 -15.489 0
12.9455 -18.0683 0
12.8736 -15.5568 0
14.9908 -15.489 0
14.9619 -13.0003 0
12.8736 -15.5568 0
12.8266 -13.0779 0
21.486 -12.7546 0
21.4434 -10.2598 0
19.3007 -12.8265 0
19.2644 -10.3492 0
21.4434 -10.2598 0
21.4166 -7.78551 0
19.2644 -10.3492 0
19.2595 -7.91842 0
19.3007 -12.8265 0
19.2644 -10.3492 0
17.1077 -12.9056 0
17.0991 -10.4533 0
19.2644 -10.3492 0
19.2595 -7.91842 0
17.0991 -10.4533 0
17.1073 -8.04491 0
21.4166 -7.78551 0
21.4342 -5.38941 0
19.2595 -7.91842 0
19.2856 -5.55875 0
21.4342 -5.38941 0
21.4906 -3.13299 0
19.2856 -5.55875 0
19.3349 -3.32151 0
19.2595 -7.91842 0
19.2856 -5.55875 0
17.1073 -8.04491 0
17.1351 -5.70659 0
19.2856 -5.55875 0
19.3349 -3.32151 0
17.1351 -5.70659 0
17.1774 -3.47668 0
17.1077 -12.9056 0
17.0991 -10.4533 0
14.9619 -13.0003 0
14.9511 -10.5543 0
17.0991 -10.4533 0
17.1073 -8.04491 0
14.9511 -10.5543 0
14.9577 -8.15717 0
14.9619 -13.0003 0
14.9511 -10.5543 0
12.8266 -13.0779 0
12.8034 -10.6369 0
14.9511 -10.5543 0
14.9577 -8.15717 0
12.8034 -10.6369 0
12.8003 -8.24646 0
17.1073 -8.04491 0
17.1351 -5.70659 0
14.9577 -8.15717 0
14.9808 -5.82891 0
17.1351 -5.70659 0
17.1774 -3.47668 0
14.9808 -5.82891 0
15.0132 -3.59767 0
14.9577 -8.15717 0
14.9808 -5.82891 0
12.8003 -8.24646 0
12.8136 -5.92116 0
14.9808 -5.82891 0
15.0132 -3.59767 0
12.8136 -5.92116 0
12.8339 -3.67953 0
13.1752 -23.0149 0
13.0549 -20.5699 0
11.1207 -23.0442 0
10.9743 -20.5915 0
13.0549 -20.5699 0
12.9455 -18.0683 0
10.9743 -20.5915 0
10.8426 -18.0921 0
11.1207 -23.0442 0
10.9743 -20.5915 0
9.03351 -23.0185 0
8.8479 -20.568 0
10.9743 -20.5915 0
10.8426 -18.0921 0
8.8479 -20.568 0
8.6922 -18.0872 0
12.9455 -18.0683 0
12.8736 -15.5568 0
10.8426 -18.0921 0
10.7431 -15.5981 0
12.8736 -15.5568 0
12.8266 -13.0779 0
10.7431 -15.5981 0
10.6761 -13.1264 0
10.8426 -18.0921 0
10.7431 -15.5981 0
8.6922 -18.0872 0
8.57055 -15.6058 0
10.7431 -15.5981 0
10.6761 -13.1264 0
8.57055 -15.6058 0
8.48211 -13.1447 0
9.03351 -23.0185 0
8.8479 -20.568 0
6.85963 -22.9587 0
6.64444 -20.5194 0
8.8479 -20.568 0
8.6922 -18.0872 0
6.64444 -20.5194 0
6.46196 -18.0541 0
6.85963 -22.9587 0
6.64444 -20.5194 0
4.5447 -22.8788 0
4.29896 -20.4516 0
6.64444 -20.5194 0
6.46196 -18.0541 0
4.29896 -20.4516 0
4.09755 -18.0015 0
8.6922 -18.0872 0
8.57055 -15.6058 0
6.46196 -18.0541 0
6.31924 -15.5859 0
8.57055 -15.6058 0
8.48211 -13.1447 0
6.31924 -15.5859 0
6.21791 -13.1364 0
6.46196 -18.0541 0
6.31924 -15.5859 0
4.09755 -18.0015 0
3.94968 -15.5497 0
6.31924 -15.5859 0
6.21791 -13.1364 0
3.94968 -15.5497 0
3.85677 -13.1155 0
12.8266 -13.0779 0
12.8034 -10.6369 0
10.6761 -13.1264 0
10.6354 -10.6927 0
12.8034 -10.6369 0
12.8003 -8.24646 0
10.6354 -10.6927 0
10.6183 -8.30775 0
10.6761 -13.1264 0
10.6354 -10.6927 0
8.48211 -13.1447 0
8.42514 -10.7193 0
10.6354 -10.6927 0
10.6183 -8.30775 0
8.42514 -10.7193 0
8.39527 -8.34094 0
12.8003 -8.24646 0
12.8136 -5.92116 0
10.6183 -8.30775 0
10.6196 -5.98155 0
12.8136 -5.92116 0
12.8339 -3.67953 0
10.6196 -5.98155 0
10.6281 -3.72173 0
10.6183 -8.30775 0
10.6196 -5.98155 0
8.39527 -8.34094 0
8.38613 -6.01373 0
10.6196 -5.98155 0
10.6281 -3.72173 0
8.38613 -6.01373 0
8.38596 -3.73288 0
8.48211 -13.1447 0
8.42514 -10.7193 0
6.21791 -13.1364 0
6.15456 -10.7216 0
8.42514 -10.7193 0
8.39527 -8.34094 0
6.15456 -10.7216 0
6.12177 -8.35132 0
6.21791 -13.1364 0
6.15456 -10.7216 0
3.85677 -13.1155 0
3.8117 -10.7134 0
6.15456 -10.7216 0
6.12177 -8.35132 0
3.8117 -10.7134 0
3.80029 -8.35165 0
8.39527 -8.34094 0
8.38613 -6.01373 0
6.12177 -8.35132 0
6.10968 -6.02569 0
8.38613 -6.01373 0
8.38596 -3.73288 0
6.10968 -6.02569 0
6.10681 -3.72926 0
6.12177 -8.35132 0
6.10968 -6.02569 0
3.80029 -8.35165 0
3.80401 -6.02851 0
6.10968 -6.02569 0
6.10681 -3.72926 0
3.80401 -6.02851 0
3.80679 -3.72648 0
28.7121 -68.4857 0
29.166 -67.4245 0
27.7059 -68.6266 0
28.087 -67.5627 0
29.166 -67.4245 0
29.6092 -66.2887 0
28.087 -67.5627 0
28.4595 -66.4233 0
27.7059 -68.6266 0
28.087 -67.5627 0
26.7459 -68.7446 0
27.0581 -67.6793 0
28.087 -67.5627 0
28.4595 -66.4233 0
27.0581 -67.6793 0
27.3655 -66.5381 0
29.6092 -66.2887 0
30.0397 -65.0806 0
28.4595 -66.4233 0
28.8219 -65.2109 0
30.0397 -65.0806 0
30.4561 -63.8036 0
28.8219 -65.2109 0
29.1732 -63.9298 0
28.4595 -66.4233 0
28.8219 -65.2109 0
27.3655 -66.5381 0
27.6692 -65.3228 0
28.8219 -65.2109 0
29.1732 -63.9298 0
27.6692 -65.3228 0
27.9683 -64.0373 0
26.7459 -68.7446 0
27.0581 -67.6793 0
25.9323 -68.8447 0
26.1742 -67.7805 0