# vtk DataFile Version 3.0
#This file was generated by the deal.II library on 2020/9/2 at 8:39:15
ASCII
DATASET UNSTRUCTURED_GRID

POINTS 1536 double
5 0 0
5.125 0 0
5 0.125 0
5.125 0.125 0
5.125 0 0
5.25 0 0
5.125 0.125 0
5.25 0.125 0
5 0.125 0
5.125 0.125 0
5 0.25 0
5.125 0.25 0
5.125 0.125 0
5.25 0.125 0
5.125 0.25 0
5.25 0.25 0
5.25 0 0
5.375 0 0
5.25 0.125 0
5.375 0.125 0
5.375 0 0
5.5 0 0
5.375 0.125 0
5.5 0.125 0
5.25 0.125 0
5.375 0.125 0
5.25 0.25 0
5.375 0.25 0
5.375 0.125 0
5.5 0.125 0
5.375 0.25 0
5.5 0.25 0
5 0.25 0
5.125 0.25 0
5 0.375 0
5.125 0.375 0
5.125 0.25 0
5.25 0.25 0
5.125 0.375 0
5.25 0.375 0
5 0.375 0
5.125 0.375 0
5 0.5 0
5.125 0.5 0
5.125 0.375 0
5.25 0.375 0
5.125 0.5 0
5.25 0.5 0
5.25 0.25 0
5.375 0.25 0
5.25 0.375 0
5.375 0.375 0
5.375 0.25 0
5.5 0.25 0
5.375 0.375 0
5.5 0.375 0
5.25 0.375 0
5.375 0.375 0
5.25 0.5 0
5.375 0.5 0
5.375 0.375 0
5.5 0.375 0
5.375 0.5 0
5.5 0.5 0
5.5 0 0
5.625 0 0
5.5 0.125 0
5.625 0.125 0
5.625 0 0
5.75 0 0
5.625 0.125 0
5.75 0.125 0
5.5 0.125 0
5.625 0.125 0
5.5 0.25 0
5.625 0.25 0
5.625 0.125 0
5.75 0.125 0
5.625 0.25 0
5.75 0.25 0
5.75 0 0
5.875 0 0
5.75 0.125 0
5.875 0.125 0
5.875 0 0
6 0 0
5.875 0.125 0
6 0.125 0
5.75 0.125 0
5.875 0.125 0
5.75 0.25 0
5.875 0.25 0
5.875 0.125 0
6 0.125 0
5.875 0.25 0
6 0.25 0
5.5 0.25 0
5.625 0.25 0
5.5 0.375 0
5.625 0.375 0
5.625 0.25 0
5.75 0.25 0
5.625 0.375 0
5.75 0.375 0
5.5 0.375 0
5.625 0.375 0
5.5 0.5 0
5.625 0.5 0
5.625 0.375 0
5.75 0.375 0
5.625 0.5 0
5.75 0.5 0
5.75 0.25 0
5.875 0.25 0
5.75 0.375 0
5.875 0.375 0
5.875 0.25 0
6 0.25 0
5.875 0.375 0
6 0.375 0
5.75 0.375 0
5.875 0.375 0
5.75 0.5 0
5.875 0.5 0
5.875 0.375 0
6 0.375 0
5.875 0.5 0
6 0.5 0
5 0.5 0
5.125 0.5 0
5 0.625 0
5.125 0.625 0
5.125 0.5 0
5.25 0.5 0
5.125 0.625 0
5.25 0.625 0
5 0.625 0
5.125 0.625 0
5 0.75 0
5.125 0.75 0
5.125 0.625 0
5.25 0.625 0
5.125 0.75 0
5.25 0.75 0
5.25 0.5 0
5.375 0.5 0
5.25 0.625 0
5.375 0.625 0
5.375 0.5 0
5.5 0.5 0
5.375 0.625 0
5.5 0.625 0
5.25 0.625 0
5.375 0.625 0
5.25 0.75 0
5.375 0.75 0
5.375 0.625 0
5.5 0.625 0
5.375 0.75 0
5.5 0.75 0
5 0.75 0
5.125 0.75 0
5 0.875 0
5.125 0.875 0
5.125 0.75 0
5.25 0.75 0
5.125 0.875 0
5.25 0.875 0
5 0.875 0
5.125 0.875 0
5 1 0
5.125 1 0
5.125 0.875 0
5.25 0.875 0
5.125 1 0
5.25 1 0
5.25 0.75 0
5.375 0.75 0
5.25 0.875 0
5.375 0.875 0
5.375 0.75 0
5.5 0.75 0
5.375 0.875 0
5.5 0.875 0
5.25 0.875 0
5.375 0.875 0
5.25 1 0
5.375 1 0
5.375 0.875 0
5.5 0.875 0
5.375 1 0
5.5 1 0
5.5 0.5 0
5.625 0.5 0
5.5 0.625 0
5.625 0.625 0
5.625 0.5 0
5.75 0.5 0
5.625 0.625 0
5.75 0.625 0
5.5 0.625 0
5.625 0.625 0
5.5 0.75 0
5.625 0.75 0
5.625 0.625 0
5.75 0.625 0
5.625 0.75 0
5.75 0.75 0
5.75 0.5 0
5.875 0.5 0
5.75 0.625 0
5.875 0.625 0
5.875 0.5 0
6 0.5 0
5.875 0.625 0
6 0.625 0
5.75 0.625 0
5.875 0.625 0
5.75 0.75 0
5.875 0.75 0
5.875 0.625 0
6 0.625 0
5.875 0.75 0
6 0.75 0
5.5 0.75 0
5.625 0.75 0
5.5 0.875 0
5.625 0.875 0
5.625 0.75 0
5.75 0.75 0
5.625 0.875 0
5.75 0.875 0
5.5 0.875 0
5.625 0.875 0
5.5 1 0
5.625 1 0
5.625 0.875 0
5.75 0.875 0
5.625 1 0
5.75 1 0
5.75 0.75 0
5.875 0.75 0
5.75 0.875 0
5.875 0.875 0
5.875 0.75 0
6 0.75 0
5.875 0.875 0
6 0.875 0
5.75 0.875 0
5.875 0.875 0
5.75 1 0
5.875 1 0
5.875 0.875 0
6 0.875 0
5.875 1 0
6 1 0
4 0 0
4.125 0 0
4 0.125 0
4.125 0.125 0
4.125 0 0
4.25 0 0
4.125 0.125 0
4.25 0.125 0
4 0.125 0
4.125 0.125 0
4 0.25 0
4.125 0.25 0
4.125 0.125 0
4.25 0.125 0
4.125 0.25 0
4.25 0.25 0
4.25 0 0
4.375 0 0
4.25 0.125 0
4.375 0.125 0
4.375 0 0
4.5 0 0
4.375 0.125 0
4.5 0.125 0
4.25 0.125 0
4.375 0.125 0
4.25 0.25 0
4.375 0.25 0
4.375 0.125 0
4.5 0.125 0
4.375 0.25 0
4.5 0.25 0
4 0.25 0
4.125 0.25 0
4 0.375 0
4.125 0.375 0
4.125 0.25 0
4.25 0.25 0
4.125 0.375 0
4.25 0.375 0
4 0.375 0
4.125 0.375 0
4 0.5 0
4.125 0.5 0
4.125 0.375 0
4.25 0.375 0
4.125 0.5 0
4.25 0.5 0
4.25 0.25 0
4.375 0.25 0
4.25 0.375 0
4.375 0.375 0
4.375 0.25 0
4.5 0.25 0
4.375 0.375 0
4.5 0.375 0
4.25 0.375 0
4.375 0.375 0
4.25 0.5 0
4.375 0.5 0
4.375 0.375 0
4.5 0.375 0
4.375 0.5 0
4.5 0.5 0
4.5 0 0
4.625 0 0
4.5 0.125 0
4.625 0.125 0
4.625 0 0
4.75 0 0
4.625 0.125 0
4.75 0.125 0
4.5 0.125 0
4.625 0.125 0
4.5 0.25 0
4.625 0.25 0
4.625 0.125 0
4.75 0.125 0
4.625 0.25 0
4.75 0.25 0
4.75 0 0
4.875 0 0
4.75 0.125 0
4.875 0.125 0
4.875 0 0
5 0 0
4.875 0.125 0
5 0.125 0
4.75 0.125 0
4.875 0.125 0
4.75 0.25 0
4.875 0.25 0
4.875 0.125 0
5 0.125 0
4.875 0.25 0
5 0.25 0
4.5 0.25 0
4.625 0.25 0
4.5 0.375 0
4.625 0.375 0
4.625 0.25 0
4.75 0.25 0
4.625 0.375 0
4.75 0.375 0
4.5 0.375 0
4.625 0.375 0
4.5 0.5 0
4.625 0.5 0
4.625 0.375 0
4.75 0.375 0
4.625 0.5 0
4.75 0.5 0
4.75 0.25 0
4.875 0.25 0
4.75 0.375 0
4.875 0.375 0
4.875 0.25 0
5 0.25 0
4.875 0.375 0
5 0.375 0
4.75 0.375 0
4.875 0.375 0
4.75 0.5 0
4.875 0.5 0
4.875 0.375 0
5 0.375 0
4.875 0.5 0
5 0.5 0
4 0.5 0
4.125 0.5 0
4 0.625 0
4.125 0.625 0
4.125 0.5 0
4.25 0.5 0
4.125 0.625 0
4.25 0.625 0
4 0.625 0
4.125 0.625 0
4 0.75 0
4.125 0.75 0
4.125 0.625 0
4.25 0.625 0
4.125 0.75 0
4.25 0.75 0
4.25 0.5 0
4.375 0.5 0
4.25 0.625 0
4.375 0.625 0
4.375 0.5 0
4.5 0.5 0
4.375 0.625 0
4.5 0.625 0
4.25 0.625 0
4.375 0.625 0
4.25 0.75 0
4.375 0.75 0
4.375 0.625 0
4.5 0.625 0
4.375 0.75 0
4.5 0.75 0
4 0.75 0
4.125 0.75 0
4 0.875 0
4.125 0.875 0
4.125 0.75 0
4.25 0.75 0
4.125 0.875 0
4.25 0.875 0
4 0.875 0
4.125 0.875 0
4 1 0
4.125 1 0
4.125 0.875 0
4.25 0.875 0
4.125 1 0
4.25 1 0
4.25 0.75 0
4.375 0.75 0
4.25 0.875 0
4.375 0.875 0
4.375 0.75 0
4.5 0.75 0
4.375 0.875 0
4.5 0.875 0
4.25 0.875 0
4.375 0.875 0
4.25 1 0
4.375 1 0
4.375 0.875 0
4.5 0.875 0
4.375 1 0
4.5 1 0
4.5 0.5 0
4.625 0.5 0
4.5 0.625 0
4.625 0.625 0
4.625 0.5 0
4.75 0.5 0
4.625 0.625 0
4.75 0.625 0
4.5 0.625 0
4.625 0.625 0
4.5 0.75 0
4.625 0.75 0
4.625 0.625 0
4.75 0.625 0
4.625 0.75 0
4.75 0.75 0
4.75 0.5 0
4.875 0.5 0
4.75 0.625 0
4.875 0.625 0
4.875 0.5 0
5 0.5 0
4.875 0.625 0
5 0.625 0
4.75 0.625 0
4.875 0.625 0
4.75 0.75 0
4.875 0.75 0
4.875 0.625 0
5 0.625 0
4.875 0.75 0
5 0.75 0
4.5 0.75 0
4.625 0.75 0
4.5 0.875 0
4.625 0.875 0
4.625 0.75 0
4.75 0.75 0
4.625 0.875 0
4.75 0.875 0
4.5 0.875 0
4.625 0.875 0
4.5 1 0
4.625 1 0
4.625 0.875 0
4.75 0.875 0
4.625 1 0
4.75 1 0
4.75 0.75 0
4.875 0.75 0
4.75 0.875 0
4.875 0.875 0
4.875 0.75 0
5 0.75 0
4.875 0.875 0
5 0.875 0
4.75 0.875 0
4.875 0.875 0
4.75 1 0
4.875 1 0
4.875 0.875 0
5 0.875 0
4.875 1 0
5 1 0
3 0 0
3.125 0 0
3 0.125 0
3.125 0.125 0
3.125 0 0
3.25 0 0
3.125 0.125 0
3.25 0.125 0
3 0.125 0
3.125 0.125 0
3 0.25 0
3.125 0.25 0
3.125 0.125 0
3.25 0.125 0
3.125 0.25 0
3.25 0.25 0
3.25 0 0
3.375 0 0
3.25 0.125 0
3.375 0.125 0
3.375 0 0
3.5 0 0
3.375 0.125 0
3.5 0.125 0
3.25 0.125 0
3.375 0.125 0
3.25 0.25 0
3.375 0.25 0
3.375 0.125 0
3.5 0.125 0
3.375 0.25 0
3.5 0.25 0
3 0.25 0
3.125 0.25 0
3 0.375 0
3.125 0.375 0
3.125 0.25 0
3.25 0.25 0
3.125 0.375 0
3.25 0.375 0
3 0.375 0
3.125 0.375 0
3 0.5 0
3.125 0.5 0
3.125 0.375 0
3.25 0.375 0
3.125 0.5 0
3.25 0.5 0
3.25 0.25 0
3.375 0.25 0
3.25 0.375 0
3.375 0.375 0
3.375 0.25 0
3.5 0.25 0
3.375 0.375 0
3.5 0.375 0
3.25 0.375 0
3.375 0.375 0
3.25 0.5 0
3.375 0.5 0
3.375 0.375 0
3.5 0.375 0
3.375 0.5 0
3.5 0.5 0
3.5 0 0
3.625 0 0
3.5 0.125 0
3.625 0.125 0
3.625 0 0
3.75 0 0
3.625 0.125 0
3.75 0.125 0
3.5 0.125 0
3.625 0.125 0
3.5 0.25 0
3.625 0.25 0
3.625 0.125 0
3.75 0.125 0
3.625 0.25 0
3.75 0.25 0
3.75 0 0
3.875 0 0
3.75 0.125 0
3.875 0.125 0
3.875 0 0
4 0 0
3.875 0.125 0
4 0.125 0
3.75 0.125 0
3.875 0.125 0
3.75 0.25 0
3.875 0.25 0
3.875 0.125 0
4 0.125 0
3.875 0.25 0
4 0.25 0
3.5 0.25 0
3.625 0.25 0
3.5 0.375 0
3.625 0.375 0
3.625 0.25 0
3.75 0.25 0
3.625 0.375 0
3.75 0.375 0
3.5 0.375 0
3.625 0.375 0
3.5 0.5 0
3.625 0.5 0
3.625 0.375 0
3.75 0.375 0
3.625 0.5 0
3.75 0.5 0
3.75 0.25 0
3.875 0.25 0
3.75 0.375 0
3.875 0.375 0
3.875 0.25 0
4 0.25 0
3.875 0.375 0
4 0.375 0
3.75 0.375 0
3.875 0.375 0
3.75 0.5 0
3.875 0.5 0
3.875 0.375 0
4 0.375 0
3.875 0.5 0
4 0.5 0
3 0.5 0
3.125 0.5 0
3 0.625 0
3.125 0.625 0
3.125 0.5 0
3.25 0.5 0
3.125 0.625 0
3.25 0.625 0
3 0.625 0
3.125 0.625 0
3 0.75 0
3.125 0.75 0
3.125 0.625 0
3.25 0.625 0
3.125 0.75 0
3.25 0.75 0
3.25 0.5 0
3.375 0.5 0
3.25 0.625 0
3.375 0.625 0
3.375 0.5 0
3.5 0.5 0
3.375 0.625 0
3.5 0.625 0
3.25 0.625 0
3.375 0.625 0
3.25 0.75 0
3.375 0.75 0
3.375 0.625 0
3.5 0.625 0
3.375 0.75 0
3.5 0.75 0
3 0.75 0
3.125 0.75 0
3 0.875 0
3.125 0.875 0
3.125 0.75 0
3.25 0.75 0
3.125 0.875 0
3.25 0.875 0
3 0.875 0
3.125 0.875 0
3 1 0
3.125 1 0
3.125 0.875 0
3.25 0.875 0
3.125 1 0
3.25 1 0
3.25 0.75 0
3.375 0.75 0
3.25 0.875 0
3.375 0.875 0
3.375 0.75 0
3.5 0.75 0
3.375 0.875 0
3.5 0.875 0
3.25 0.875 0
3.375 0.875 0
3.25 1 0
3.375 1 0
3.375 0.875 0
3.5 0.875 0
3.375 1 0
3.5 1 0
3.5 0.5 0
3.625 0.5 0
3.5 0.625 0
3.625 0.625 0
3.625 0.5 0
3.75 0.5 0
3.625 0.625 0
3.75 0.625 0
3.5 0.625 0
3.625 0.625 0
3.5 0.75 0
3.625 0.75 0
3.625 0.625 0
3.75 0.625 0
3.625 0.75 0
3.75 0.75 0
3.75 0.5 0
3.875 0.5 0
3.75 0.625 0
3.875 0.625 0
3.875 0.5 0
4 0.5 0
3.875 0.625 0
4 0.625 0
3.75 0.625 0
3.875 0.625 0
3.75 0.75 0
3.875 0.75 0
3.875 0.625 0
4 0.625 0
3.875 0.75 0
4 0.75 0
3.5 0.75 0
3.625 0.75 0
3.5 0.875 0
3.625 0.875 0
3.625 0.75 0
3.75 0.75 0
3.625 0.875 0
3.75 0.875 0
3.5 0.875 0
3.625 0.875 0
3.5 1 0
3.625 1 0
3.625 0.875 0
3.75 0.875 0
3.625 1 0
3.75 1 0
3.75 0.75 0
3.875 0.75 0
3.75 0.875 0
3.875 0.875 0
3.875 0.75 0
4 0.75 0
3.875 0.875 0
4 0.875 0
3.75 0.875 0
3.875 0.875 0
3.75 1 0
3.875 1 0
3.875 0.875 0
4 0.875 0
3.875 1 0
4 1 0
2 0 0
2.125 0 0
2 0.125 0
2.125 0.125 0
2.125 0 0
2.25 0 0
2.125 0.125 0
2.25 0.125 0
2 0.125 0
2.125 0.125 0
2 0.25 0
2.125 0.25 0
2.125 0.125 0
2.25 0.125 0
2.125 0.25 0
2.25 0.25 0
2.25 0 0
2.375 0 0
2.25 0.125 0
2.375 0.125 0
2.375 0 0
2.5 0 0
2.375 0.125 0
2.5 0.125 0
2.25 0.125 0
2.375 0.125 0
2.25 0.25 0
2.375 0.25 0
2.375 0.125 0
2.5 0.125 0
2.375 0.25 0
2.5 0.25 0
2 0.25 0
2.125 0.25 0
2 0.375 0
2.125 0.375 0
2.125 0.25 0
2.25 0.25 0
2.125 0.375 0
2.25 0.375 0
2 0.375 0
2.125 0.375 0
2 0.5 0
2.125 0.5 0
2.125 0.375 0
2.25 0.375 0
2.125 0.5 0
2.25 0.5 0
2.25 0.25 0
2.375 0.25 0
2.25 0.375 0
2.375 0.375 0
2.375 0.25 0
[...]
POINT_DATA 1536
VECTORS displacements double
30.8561 -34.7585 0
31.388 -31.0842 0
27.3254 -34.9188 0
27.7234 -31.2313 0
31.388 -31.0842 0
31.8786 -27.2851 0
27.7234 -31.2313 0
28.0871 -27.4191 0
27.3254 -34.9188 0
27.7234 -31.2313 0
23.9351 -35.029 0
24.1941 -31.3292 0
27.7234 -31.2313 0
28.0871 -27.4191 0
24.1941 -31.3292 0
24.4235 -27.503 0
31.8786 -27.2851 0
32.3322 -23.3708 0
28.0871 -27.4191 0
28.4152 -23.4919 0
32.3322 -23.3708 0
32.7592 -19.3444 0
28.4152 -23.4919 0
28.7061 -19.4545 0
28.0871 -27.4191 0
28.4152 -23.4919 0
24.4235 -27.503 0
24.6178 -23.5596 0
28.4152 -23.4919 0
28.7061 -19.4545 0
24.6178 -23.5596 0
24.7678 -19.5021 0
23.9351 -35.029 0
24.1941 -31.3292 0
20.6359 -35.0878 0
20.7569 -31.3767 0
24.1941 -31.3292 0
24.4235 -27.503 0
20.7569 -31.3767 0
20.8562 -27.5365 0
20.6359 -35.0878 0
20.7569 -31.3767 0
17.382 -35.0983 0
17.3689 -31.3785 0
20.7569 -31.3767 0
20.8562 -27.5365 0
17.3689 -31.3785 0
17.3461 -27.528 0
24.4235 -27.503 0
24.6178 -23.5596 0
20.8562 -27.5365 0
20.9274 -23.5767 0
24.6178 -23.5596 0
24.7678 -19.5021 0
20.9274 -23.5767 0
20.9629 -19.503 0
20.8562 -27.5365 0
20.9274 -23.5767 0
17.3461 -27.528 0
17.3099 -23.5581 0
20.9274 -23.5767 0
20.9629 -19.503 0
17.3099 -23.5581 0
17.2583 -19.4811 0
32.7592 -19.3444 0
33.1808 -15.1967 0
28.7061 -19.4545 0
28.9525 -15.2933 0
33.1808 -15.1967 0
33.6429 -10.8569 0
28.9525 -15.2933 0
29.1296 -10.9668 0
28.7061 -19.4545 0
28.9525 -15.2933 0
24.7678 -19.5021 0
24.8588 -15.3203 0
28.9525 -15.2933 0
29.1296 -10.9668 0
24.8588 -15.3203 0
24.8679 -10.963 0
33.6429 -10.8569 0
34.2026 -6.24516 0
29.1296 -10.9668 0
29.131 -6.21124 0
34.2026 -6.24516 0
34.6138 0 0
29.131 -6.21124 0
29.2601 -1.19696 0
29.1296 -10.9668 0
29.131 -6.21124 0
24.8679 -10.963 0
24.8583 -6.40411 0
29.131 -6.21124 0
29.2601 -1.19696 0
24.8583 -6.40411 0
24.9874 -2.02415 0
24.7678 -19.5021 0
24.8588 -15.3203 0
20.9629 -19.503 0
20.9566 -15.3136 0
24.8588 -15.3203 0
24.8679 -10.963 0
20.9566 -15.3136 0
20.9257 -11.0119 0
20.9629 -19.503 0
20.9566 -15.3136 0
17.2583 -19.4811 0
17.1982 -15.3141 0
20.9566 -15.3136 0
20.9257 -11.0119 0
17.1982 -15.3141 0
17.1557 -11.0974 0
24.8679 -10.963 0
24.8583 -6.40411 0
20.9257 -11.0119 0
20.9384 -6.68361 0
24.8583 -6.40411 0
24.9874 -2.02415 0
20.9384 -6.68361 0
21.0453 -2.5903 0
20.9257 -11.0119 0
20.9384 -6.68361 0
17.1557 -11.0974 0
17.1675 -6.92704 0
20.9384 -6.68361 0
21.0453 -2.5903 0
17.1675 -6.92704 0
17.2424 -2.97409 0
17.382 -35.0983 0
17.3689 -31.3785 0
14.1321 -35.0641 0
13.9897 -31.3409 0
17.3689 -31.3785 0
17.3461 -27.528 0
13.9897 -31.3409 0
13.8538 -27.4867 0
14.1321 -35.0641 0
13.9897 -31.3409 0
10.8444 -34.9884 0
10.5777 -31.2684 0
13.9897 -31.3409 0
13.8538 -27.4867 0
10.5777 -31.2684 0
10.3359 -27.4186 0
17.3461 -27.528 0
17.3099 -23.5581 0
13.8538 -27.4867 0
13.7244 -23.5164 0
17.3099 -23.5581 0
17.2583 -19.4811 0
13.7244 -23.5164 0
13.6053 -19.4502 0
13.8538 -27.4867 0
13.7244 -23.5164 0
10.3359 -27.4186 0
10.1227 -23.457 0
13.7244 -23.5164 0
13.6053 -19.4502 0
10.1227 -23.457 0
9.94431 -19.4095 0
10.8444 -34.9884 0
10.5777 -31.2684 0
7.46871 -34.872 0
7.08044 -31.162 0
10.5777 -31.2684 0
10.3359 -27.4186 0
7.08044 -31.162 0
6.73565 -27.3243 0
7.46871 -34.872 0
7.08044 -31.162 0
3.93599 -34.7133 0
3.42213 -31.0195 0
7.08044 -31.162 0
6.73565 -27.3243 0
3.42213 -31.0195 0
2.97042 -27.2008 0
10.3359 -27.4186 0
10.1227 -23.457 0
6.73565 -27.3243 0
6.44125 -23.3786 0
10.1227 -23.457 0
9.94431 -19.4095 0
6.44125 -23.3786 0
6.20538 -19.3532 0
6.73565 -27.3243 0
6.44125 -23.3786 0
2.97042 -27.2008 0
2.5923 -23.278 0
6.44125 -23.3786 0
6.20538 -19.3532 0
2.5923 -23.278 0
2.30106 -19.2798 0
17.2583 -19.4811 0
17.1982 -15.3141 0
13.6053 -19.4502 0
13.5074 -15.3196 0
17.1982 -15.3141 0
17.1557 -11.0974 0
13.5074 -15.3196 0
13.4494 -11.1761 0
13.6053 -19.4502 0
13.5074 -15.3196 0
9.94431 -19.4095 0
9.80976 -15.3144 0
13.5074 -15.3196 0
13.4494 -11.1761 0
9.80976 -15.3144 0
9.72834 -11.2242 0
17.1557 -11.0974 0
17.1675 -6.92704 0
13.4494 -11.1761 0
13.4462 -7.10076 0
17.1675 -6.92704 0
17.2424 -2.97409 0
13.4462 -7.10076 0
13.487 -3.20627 0
13.4494 -11.1761 0
13.4462 -7.10076 0
9.72834 -11.2242 0
9.70303 -7.2025 0
13.4462 -7.10076 0
13.487 -3.20627 0
9.70303 -7.2025 0
9.71406 -3.31412 0
9.94431 -19.4095 0
9.80976 -15.3144 0
6.20538 -19.3532 0
6.03501 -15.2882 0
9.80976 -15.3144 0
9.72834 -11.2242 0
6.03501 -15.2882 0
5.9317 -11.2348 0
6.20538 -19.3532 0
6.03501 -15.2882 0
2.30106 -19.2798 0
2.10754 -15.2452 0
6.03501 -15.2882 0
5.9317 -11.2348 0
2.10754 -15.2452 0
2.01069 -11.2215 0
9.72834 -11.2242 0
9.70303 -7.2025 0
5.9317 -11.2348 0
5.88762 -7.24473 0
9.70303 -7.2025 0
9.71406 -3.31412 0
5.88762 -7.24473 0
5.87997 -3.34062 0
5.9317 -11.2348 0
5.88762 -7.24473 0
2.01069 -11.2215 0
1.98575 -7.252 0
5.88762 -7.24473 0
5.87997 -3.34062 0
1.98575 -7.252 0
1.98586 -3.3406 0
25.1673 -58.3499 0
26.0065 -56.0595 0
23.0569 -58.5987 0
23.6842 -56.2987 0
26.0065 -56.0595 0
26.8111 -53.5619 0
23.6842 -56.2987 0
24.2869 -53.7911 0
23.0569 -58.5987 0
23.6842 -56.2987 0
21.0959 -58.7735 0
21.5107 -56.4672 0
23.6842 -56.2987 0
24.2869 -53.7911 0
21.5107 -56.4672 0
21.9109 -53.9532 0
26.8111 -53.5619 0
27.5803 -50.8665 0
24.2869 -53.7911 0
24.864 -51.0854 0
27.5803 -50.8665 0
28.3134 -47.9826 0
24.864 -51.0854 0
25.4145 -48.1909 0
24.2869 -53.7911 0
24.864 -51.0854 0
21.9109 -53.9532 0
22.2953 -51.2406 0
24.864 -51.0854 0
25.4145 -48.1909 0
22.2953 -51.2406 0
22.6629 -48.3386 0
21.0959 -58.7735 0
21.5107 -56.4672 0
19.2366 -58.8737 0
19.4382 -56.5644 0
21.5107 -56.4672 0
21.9109 -53.9532 0
19.4382 -56.5644 0
19.6344 -54.0474 0
19.2366 -58.8737 0
19.4382 -56.5644 0
17.4212 -58.9005 0
17.4107 -56.5911 0
19.4382 -56.5644 0
19.6344 -54.0474 0
17.4107 -56.5911 0
17.4037 -54.0744 0
21.9109 -53.9532 0
22.2953 -51.2406 0
19.6344 -54.0474 0
19.8245 -51.3314 0
22.2953 -51.2406 0
22.6629 -48.3386 0
19.8245 -51.3314 0
20.0072 -48.4254 0
19.6344 -54.0474 0
19.8245 -51.3314 0
17.4037 -54.0744 0
17.3993 -51.3583 0
19.8245 -51.3314 0
20.0072 -48.4254 0
17.3993 -51.3583 0
17.3966 -48.4515 0
28.3134 -47.9826 0
29.009 -44.9196 0
25.4145 -48.1909 0
25.9372 -45.1168 0
29.009 -44.9196 0
29.6656 -41.6875 0
25.9372 -45.1168 0
26.4309 -41.873 0
25.4145 -48.1909 0
25.9372 -45.1168 0
22.6629 -48.3386 0
23.0122 -45.2565 0
25.9372 -45.1168 0
26.4309 -41.873 0
23.0122 -45.2565 0
23.3418 -42.0038 0
29.6656 -41.6875 0
30.2818 -38.2968 0
26.4309 -41.873 0
26.8941 -38.4699 0
30.2818 -38.2968 0
30.8561 -34.7585 0
26.8941 -38.4699 0
27.3254 -34.9188 0
26.4309 -41.873 0
26.8941 -38.4699 0
23.3418 -42.0038 0
23.6502 -38.591 0
26.8941 -38.4699 0
27.3254 -34.9188 0
23.6502 -38.591 0
23.9351 -35.029 0
22.6629 -48.3386 0
23.0122 -45.2565 0
20.0072 -48.4254 0
20.1813 -45.3382 0
23.0122 -45.2565 0
23.3418 -42.0038 0
20.1813 -45.3382 0
20.3453 -42.0794 0
20.0072 -48.4254 0
20.1813 -45.3382 0
17.3966 -48.4515 0
17.3948 -45.3625 0
20.1813 -45.3382 0
20.3453 -42.0794 0
17.3948 -45.3625 0
17.3928 -42.1008 0
23.3418 -42.0038 0
23.6502 -38.591 0
20.3453 -42.0794 0
20.4976 -38.6591 0
23.6502 -38.591 0
23.9351 -35.029 0
20.4976 -38.6591 0
20.6359 -35.0878 0
20.3453 -42.0794 0
20.4976 -38.6591 0
17.3928 -42.1008 0
17.3891 -38.6759 0
20.4976 -38.6591 0
20.6359 -35.0878 0
17.3891 -38.6759 0
17.382 -35.0983 0
17.4212 -58.9005 0
17.4107 -56.5911 0
15.5957 -58.856 0
15.3766 -56.5493 0
17.4107 -56.5911 0
17.4037 -54.0744 0
15.3766 -56.5493 0
15.1686 -54.0357 0
15.5957 -58.856 0
15.3766 -56.5493 0
13.7107 -58.7428 0
13.2873 -56.4413 0
15.3766 -56.5493 0
15.1686 -54.0357 0
13.2873 -56.4413 0
12.8818 -53.9333 0
17.4037 -54.0744 0
17.3993 -51.3583 0
15.1686 -54.0357 0
14.9714 -51.3226 0
17.3993 -51.3583 0
17.3966 -48.4515 0
14.9714 -51.3226 0
14.7845 -48.4181 0
15.1686 -54.0357 0
14.9714 -51.3226 0
12.8818 -53.9333 0
12.4944 -51.2256 0
14.9714 -51.3226 0
14.7845 -48.4181 0
12.4944 -51.2256 0
12.1253 -48.3263 0
13.7107 -58.7428 0
13.2873 -56.4413 0
11.7222 -58.5628 0
11.0975 -56.2686 0
13.2873 -56.4413 0
12.8818 -53.9333 0
11.0975 -56.2686 0
10.4966 -53.768 0
11.7222 -58.5628 0
11.0975 -56.2686 0
9.60281 -58.3157 0
8.77287 -56.0303 0
11.0975 -56.2686 0
10.4966 -53.768 0
8.77287 -56.0303 0
7.97291 -53.539 0
12.8818 -53.9333 0
12.4944 -51.2256 0
10.4966 -53.768 0
9.92066 -51.068 0
12.4944 -51.2256 0
12.1253 -48.3263 0
9.92066 -51.068 0
9.37093 -48.1765 0
10.4966 -53.768 0
9.92066 -51.068 0
7.97291 -53.539 0
7.20516 -50.8489 0
9.92066 -51.068 0
9.37093 -48.1765 0
7.20516 -50.8489 0
6.4718 -47.9678 0
17.3966 -48.4515 0
17.3948 -45.3625 0
14.7845 -48.4181 0
14.6075 -45.3307 0
17.3948 -45.3625 0
17.3928 -42.1008 0
14.6075 -45.3307 0
14.4401 -42.0695 0
14.7845 -48.4181 0
14.6075 -45.3307 0
12.1253 -48.3263 0
11.775 -45.2437 0
14.6075 -45.3307 0
14.4401 -42.0695 0
11.775 -45.2437 0
11.4442 -41.9867 0
17.3928 -42.1008 0
17.3891 -38.6759 0
14.4401 -42.0695 0
14.2819 -38.6439 0
17.3891 -38.6759 0
17.382 -35.0983 0
14.2819 -38.6439 0
14.1321 -35.0641 0
14.4401 -42.0695 0
14.2819 -38.6439 0
11.4442 -41.9867 0
11.1337 -38.5649 0
14.2819 -38.6439 0
14.1321 -35.0641 0
11.1337 -38.5649 0
10.8444 -34.9884 0
12.1253 -48.3263 0
11.775 -45.2437 0
9.37093 -48.1765 0
8.84888 -45.1018 0
11.775 -45.2437 0
11.4442 -41.9867 0
8.84888 -45.1018 0
8.35625 -41.853 0
9.37093 -48.1765 0
8.84888 -45.1018 0
6.4718 -47.9678 0
5.77515 -44.9042 0
8.84888 -45.1018 0
8.35625 -41.853 0
5.77515 -44.9042 0
5.11787 -41.6673 0
11.4442 -41.9867 0
11.1337 -38.5649 0
8.35625 -41.853 0
7.89525 -38.4396 0
11.1337 -38.5649 0
10.8444 -34.9884 0
7.89525 -38.4396 0
7.46871 -34.872 0
8.35625 -41.853 0
7.89525 -38.4396 0
5.11787 -41.6673 0
4.50332 -38.2667 0
7.89525 -38.4396 0
7.46871 -34.872 0
4.50332 -38.2667 0
3.93599 -34.7133 0
17.3069 -67.707 0
18.372 -67.5469 0
17.3069 -68.0171 0
18.0744 -67.8551 0
18.372 -67.5469 0
19.4262 -67.0702 0
18.0744 -67.8551 0
18.8358 -67.3735 0
17.3069 -68.0171 0
18.0744 -67.8551 0
17.3069 -68.2557 0
17.8209 -68.0906 0
18.0744 -67.8551 0
18.8358 -67.3735 0
17.8209 -68.0906 0
18.3278 -67.6007 0
19.4262 -67.0702 0
20.4603 -66.2879 0
18.8358 -67.3735 0
19.5858 -66.5838 0
20.4603 -66.2879 0
21.4674 -65.2153 0
19.5858 -66.5838 0
20.3203 -65.5024 0
18.8358 -67.3735 0
19.5858 -66.5838 0
18.3278 -67.6007 0
18.8229 -66.8003 0
19.5858 -66.5838 0
20.3203 -65.5024 0
18.8229 -66.8003 0
19.3042 -65.7081 0
17.3069 -68.2557 0
17.8209 -68.0906 0
17.3069 -68.4594 0
17.5978 -68.2867 0
17.8209 -68.0906 0
18.3278 -67.6007 0
17.5978 -68.2867 0
17.8762 -67.7779 0
17.3069 -68.4594 0
17.5978 -68.2867 0
17.3069 -68.6491 0
17.3895 -68.4613 0
17.5978 -68.2867 0
17.8762 -67.7779 0
17.3895 -68.4613 0
17.4498 -67.9159 0
18.3278 -67.6007 0
18.8229 -66.8003 0
17.8762 -67.7779 0
18.1354 -66.9547 0
18.8229 -66.8003 0
19.3042 -65.7081 0
18.1354 -66.9547 0
18.3761 -65.8424 0
17.8762 -67.7779 0
18.1354 -66.9547 0
17.4498 -67.9159 0
17.4787 -67.0523 0
18.1354 -66.9547 0
18.3761 -65.8424 0
17.4787 -67.0523 0
17.4819 -65.9078 0
21.4674 -65.2153 0
22.4432 -63.8694 0
20.3203 -65.5024 0
21.0363 -64.1472 0
22.4432 -63.8694 0
23.3855 -62.2669 0
21.0363 -64.1472 0
21.732 -62.5351 0
20.3203 -65.5024 0
21.0363 -64.1472 0
19.3042 -65.7081 0
19.7716 -64.3433 0
21.0363 -64.1472 0
21.732 -62.5351 0
19.7716 -64.3433 0
20.2259 -62.7232 0
23.3855 -62.2669 0
24.2936 -60.4228 0
21.732 -62.5351 0
22.4059 -60.6813 0
24.2936 -60.4228 0
25.1673 -58.3499 0
22.4059 -60.6813 0
23.0569 -58.5987 0
21.732 -62.5351 0
22.4059 -60.6813 0
20.2259 -62.7232 0
20.6674 -60.8624 0
22.4059 -60.6813 0
23.0569 -58.5987 0
20.6674 -60.8624 0
21.0959 -58.7735 0
19.3042 -65.7081 0
19.7716 -64.3433 0
18.3761 -65.8424 0
18.6026 -64.4628 0
19.7716 -64.3433 0
20.2259 -62.7232 0
18.6026 -64.4628 0
18.8196 -62.8331 0
18.3761 -65.8424 0
18.6026 -64.4628 0
17.4819 -65.9078 0
17.47 -64.5074 0
18.6026 -64.4628 0
18.8196 -62.8331 0
17.47 -64.5074 0
17.4525 -62.8665 0
20.2259 -62.7232 0
20.6674 -60.8624 0
18.8196 -62.8331 0
19.0305 -60.9665 0
20.6674 -60.8624 0
21.0959 -58.7735 0
19.0305 -60.9665 0
19.2366 -58.8737 0
18.8196 -62.8331 0
19.0305 -60.9665 0
17.4525 -62.8665 0
17.4353 -60.9949 0
19.0305 -60.9665 0
19.2366 -58.8737 0
17.4353 -60.9949 0
17.4212 -58.9005 0
17.3069 -68.6491 0
17.3895 -68.4613 0
17.3069 -68.8328 0
17.1815 -68.6162 0
17.3895 -68.4613 0
17.4498 -67.9159 0
17.1815 -68.6162 0
17.0178 -68.0078 0
17.3069 -68.8328 0
17.1815 -68.6162 0
17.3069 -69.0079 0
16.9534 -68.7385 0
17.1815 -68.6162 0
17.0178 -68.0078 0
16.9534 -68.7385 0
16.5466 -68.0269 0
17.4498 -67.9159 0
17.4787 -67.0523 0
17.0178 -68.0078 0
16.8089 -67.0833 0
17.4787 -67.0523 0
17.4819 -65.9078 0
16.8089 -67.0833 0
16.5686 -65.8968 0
17.0178 -68.0078 0
16.8089 -67.0833 0
16.5466 -68.0269 0
16.0746 -67.0209 0
16.8089 -67.0833 0
16.5686 -65.8968 0
16.0746 -67.0209 0
15.5774 -65.7953 0
17.3069 -69.0079 0
16.9534 -68.7385 0
17.3069 -69.177 0
16.6942 -68.7898 0
16.9534 -68.7385 0
16.5466 -68.0269 0
16.6942 -68.7898 0
15.9622 -67.9054 0
17.3069 -69.177 0
16.6942 -68.7898 0
17.3069 -69.2358 0
16.1388 -68.6737 0
16.6942 -68.7898 0
15.9622 -67.9054 0
16.1388 -68.6737 0
15.0866 -67.6145 0
16.5466 -68.0269 0
16.0746 -67.0209 0
15.9622 -67.9054 0
15.1902 -66.836 0
16.0746 -67.0209 0
15.5774 -65.7953 0
15.1902 -66.836 0
14.4484 -65.5998 0
15.9622 -67.9054 0
15.1902 -66.836 0
15.0866 -67.6145 0
14.1169 -66.5568 0
15.1902 -66.836 0
14.4484 -65.5998 0
14.1169 -66.5568 0
13.1731 -65.3233 0
17.4819 -65.9078 0
17.47 -64.5074 0
16.5686 -65.8968 0
16.3167 -64.4739 0
17.47 -64.5074 0
17.4525 -62.8665 0
16.3167 -64.4739 0
16.0672 -62.8233 0
16.5686 -65.8968 0
16.3167 -64.4739 0
15.5774 -65.7953 0
15.0868 -64.3582 0
16.3167 -64.4739 0
16.0672 -62.8233 0
15.0868 -64.3582 0
14.6108 -62.7041 0
17.4525 -62.8665 0
17.4353 -60.9949 0
16.0672 -62.8233 0
15.8261 -60.9492 0
17.4353 -60.9949 0
17.4212 -58.9005 0
15.8261 -60.9492 0
15.5957 -58.856 0
16.0672 -62.8233 0
15.8261 -60.9492 0
14.6108 -62.7041 0
14.1519 -60.8317 0
15.8261 -60.9492 0
15.5957 -58.856 0
14.1519 -60.8317 0
13.7107 -58.7428 0
15.5774 -65.7953 0
15.0868 -64.3582 0
14.4484 -65.5998 0
13.7326 -64.1619 0
15.0868 -64.3582 0
14.6108 -62.7041 0
13.7326 -64.1619 0
13.0401 -62.5117 0
14.4484 -65.5998 0
13.7326 -64.1619 0
13.1731 -65.3233 0
12.248 -63.892 0
13.7326 -64.1619 0
13.0401 -62.5117 0
12.248 -63.892 0
11.343 -62.2487 0
14.6108 -62.7041 0
14.1519 -60.8317 0
13.0401 -62.5117 0
12.37 -60.6451 0
14.1519 -60.8317 0
13.7107 -58.7428 0
12.37 -60.6451 0
11.7222 -58.5628 0
13.0401 -62.5117 0
12.37 -60.6451 0
11.343 -62.2487 0
10.4604 -60.3897 0
12.37 -60.6451 0
11.7222 -58.5628 0
10.4604 -60.3897 0
9.60281 -58.3157 0
9.44651 -58.3499 0
10.3202 -60.4228 0
11.5569 -58.5987 0
12.2079 -60.6813 0
10.3202 -60.4228 0
11.2283 -62.2669 0
12.2079 -60.6813 0
12.8818 -62.5351 0
11.5569 -58.5987 0
12.2079 -60.6813 0
13.5179 -58.7735 0
13.9464 -60.8624 0
12.2079 -60.6813 0
12.8818 -62.5351 0
13.9464 -60.8624 0
14.3879 -62.7232 0
11.2283 -62.2669 0
12.1706 -63.8694 0
12.8818 -62.5351 0
13.5775 -64.1472 0
12.1706 -63.8694 0
13.1464 -65.2153 0
13.5775 -64.1472 0
14.2935 -65.5024 0
12.8818 -62.5351 0
13.5775 -64.1472 0
14.3879 -62.7232 0
14.8422 -64.3433 0
13.5775 -64.1472 0
14.2935 -65.5024 0
14.8422 -64.3433 0
15.3096 -65.7081 0
13.5179 -58.7735 0
13.9464 -60.8624 0
15.3772 -58.8737 0
15.5833 -60.9665 0
13.9464 -60.8624 0
14.3879 -62.7232 0
15.5833 -60.9665 0
15.7942 -62.8331 0
15.3772 -58.8737 0
15.5833 -60.9665 0
17.1926 -58.9005 0
17.1785 -60.9949 0
15.5833 -60.9665 0
15.7942 -62.8331 0
17.1785 -60.9949 0
17.1613 -62.8665 0
14.3879 -62.7232 0
14.8422 -64.3433 0
15.7942 -62.8331 0
16.0112 -64.4628 0
14.8422 -64.3433 0
15.3096 -65.7081 0
16.0112 -64.4628 0
16.2377 -65.8424 0
15.7942 -62.8331 0
16.0112 -64.4628 0
17.1613 -62.8665 0
17.1438 -64.5074 0
16.0112 -64.4628 0
16.2377 -65.8424 0
17.1438 -64.5074 0
17.1319 -65.9078 0
13.1464 -65.2153 0
14.1535 -66.2879 0
14.2935 -65.5024 0
15.028 -66.5838 0
14.1535 -66.2879 0
15.1876 -67.0702 0
15.028 -66.5838 0
15.778 -67.3735 0
14.2935 -65.5024 0
15.028 -66.5838 0
15.3096 -65.7081 0
15.7909 -66.8003 0
15.028 -66.5838 0
15.778 -67.3735 0
15.7909 -66.8003 0
16.286 -67.6007 0
15.1876 -67.0702 0
16.2418 -67.5469 0
15.778 -67.3735 0
16.5394 -67.8551 0
16.2418 -67.5469 0
17.3069 -67.707 0
16.5394 -67.8551 0
17.3069 -68.0171 0
15.778 -67.3735 0
16.5394 -67.8551 0
16.286 -67.6007 0
16.7929 -68.0906 0
16.5394 -67.8551 0
17.3069 -68.0171 0
16.7929 -68.0906 0
17.3069 -68.2557 0
15.3096 -65.7081 0
15.7909 -66.8003 0
16.2377 -65.8424 0
16.4784 -66.9547 0
15.7909 -66.8003 0
16.286 -67.6007 0
16.4784 -66.9547 0
16.7376 -67.7779 0
16.2377 -65.8424 0
16.4784 -66.9547 0
17.1319 -65.9078 0
17.1351 -67.0523 0
16.4784 -66.9547 0
16.7376 -67.7779 0
17.1351 -67.0523 0
17.1641 -67.9159 0
16.286 -67.6007 0
16.7929 -68.0906 0
16.7376 -67.7779 0
17.016 -68.2867 0
16.7929 -68.0906 0
17.3069 -68.2557 0
17.016 -68.2867 0
17.3069 -68.4594 0
16.7376 -67.7779 0
17.016 -68.2867 0
17.1641 -67.9159 0
17.2243 -68.4613 0
17.016 -68.2867 0
17.3069 -68.4594 0
17.2243 -68.4613 0
17.3069 -68.6491 0
17.1926 -58.9005 0
17.1785 -60.9949 0
19.0181 -58.856 0
18.7877 -60.9492 0
17.1785 -60.9949 0
17.1613 -62.8665 0
18.7877 -60.9492 0
18.5466 -62.8233 0
19.0181 -58.856 0
18.7877 -60.9492 0
20.9031 -58.7428 0
20.4619 -60.8317 0
18.7877 -60.9492 0
18.5466 -62.8233 0
20.4619 -60.8317 0
20.003 -62.7041 0
17.1613 -62.8665 0
17.1438 -64.5074 0
18.5466 -62.8233 0
18.2971 -64.4739 0
17.1438 -64.5074 0
17.1319 -65.9078 0
18.2971 -64.4739 0
18.0452 -65.8968 0
18.5466 -62.8233 0
18.2971 -64.4739 0
20.003 -62.7041 0
19.527 -64.3582 0
18.2971 -64.4739 0
18.0452 -65.8968 0
19.527 -64.3582 0
19.0364 -65.7953 0
20.9031 -58.7428 0
20.4619 -60.8317 0
22.8916 -58.5628 0
22.2438 -60.6451 0
20.4619 -60.8317 0
20.003 -62.7041 0
22.2438 -60.6451 0
21.5737 -62.5117 0
22.8916 -58.5628 0
22.2438 -60.6451 0
25.011 -58.3157 0
24.1534 -60.3897 0
22.2438 -60.6451 0
21.5737 -62.5117 0
24.1534 -60.3897 0
23.2708 -62.2487 0
20.003 -62.7041 0
19.527 -64.3582 0
21.5737 -62.5117 0
20.8812 -64.1619 0
19.527 -64.3582 0
19.0364 -65.7953 0
20.8812 -64.1619 0
20.1654 -65.5998 0
21.5737 -62.5117 0
20.8812 -64.1619 0
23.2708 -62.2487 0
22.3658 -63.892 0
20.8812 -64.1619 0
20.1654 -65.5998 0
22.3658 -63.892 0
21.4407 -65.3233 0
17.1319 -65.9078 0
17.1351 -67.0523 0
18.0452 -65.8968 0
17.8049 -67.0833 0
17.1351 -67.0523 0
17.1641 -67.9159 0
17.8049 -67.0833 0
17.596 -68.0078 0
18.0452 -65.8968 0
17.8049 -67.0833 0
19.0364 -65.7953 0
18.5392 -67.0209 0
17.8049 -67.0833 0
17.596 -68.0078 0
18.5392 -67.0209 0
18.0672 -68.0269 0
17.1641 -67.9159 0
17.2243 -68.4613 0
17.596 -68.0078 0
17.4323 -68.6162 0
17.2243 -68.4613 0
17.3069 -68.6491 0
17.4323 -68.6162 0
17.3069 -68.8328 0
17.596 -68.0078 0
17.4323 -68.6162 0
18.0672 -68.0269 0
17.6604 -68.7385 0
17.4323 -68.6162 0
17.3069 -68.8328 0
17.6604 -68.7385 0
17.3069 -69.0079 0
19.0364 -65.7953 0
18.5392 -67.0209 0
20.1654 -65.5998 0
19.4236 -66.836 0
18.5392 -67.0209 0
18.0672 -68.0269 0
19.4236 -66.836 0
18.6516 -67.9054 0
20.1654 -65.5998 0
19.4236 -66.836 0
21.4407 -65.3233 0
20.4969 -66.5568 0
19.4236 -66.836 0
18.6516 -67.9054 0
20.4969 -66.5568 0
19.5272 -67.6145 0
18.0672 -68.0269 0
17.6604 -68.7385 0
18.6516 -67.9054 0
17.9196 -68.7898 0
17.6604 -68.7385 0
17.3069 -69.0079 0
17.9196 -68.7898 0
17.3069 -69.177 0
18.6516 -67.9054 0
17.9196 -68.7898 0
19.5272 -67.6145 0
18.475 -68.6737 0
17.9196 -68.7898 0
17.3069 -69.177 0
18.475 -68.6737 0
17.3069 -69.2358 0
3.75771 -34.7585 0
4.33202 -38.2968 0
7.2884 -34.9188 0
7.71971 -38.4699 0
4.33202 -38.2968 0
4.94816 -41.6875 0
7.71971 -38.4699 0
8.18292 -41.873 0
7.2884 -34.9188 0
7.71971 -38.4699 0
10.6787 -35.029 0
10.9637 -38.591 0
7.71971 -38.4699 0
8.18292 -41.873 0
10.9637 -38.591 0
11.272 -42.0038 0
4.94816 -41.6875 0
5.6048 -44.9196 0
8.18292 -41.873 0
8.67658 -45.1168 0
5.6048 -44.9196 0
6.3004 -47.9826 0
8.67658 -45.1168 0
9.19931 -48.1909 0
8.18292 -41.873 0
8.67658 -45.1168 0
11.272 -42.0038 0
11.6016 -45.2565 0
8.67658 -45.1168 0
9.19931 -48.1909 0
11.6016 -45.2565 0
11.9509 -48.3386 0
10.6787 -35.029 0
10.9637 -38.591 0
13.9779 -35.0878 0
14.1162 -38.6591 0