# vtk DataFile Version 3.0
#This file was generated by the deal.II library on 2020/9/2 at 8:39:27
ASCII
DATASET UNSTRUCTURED_GRID

POINTS 1536 double
5 0 0
5.125 0 0
5 0.125 0
5.125 0.125 0
5.125 0 0
5.25 0 0
5.125 0.125 0
5.25 0.125 0
5 0.125 0
5.125 0.125 0
5 0.25 0
5.125 0.25 0
5.125 0.125 0
5.25 0.125 0
5.125 0.25 0
5.25 0.25 0
5.25 0 0
5.375 0 0
5.25 0.125 0
5.375 0.125 0
5.375 0 0
5.5 0 0
5.375 0.125 0
5.5 0.125 0
5.25 0.125 0
5.375 0.125 0
5.25 0.25 0
5.375 0.25 0
5.375 0.125 0
5.5 0.125 0
5.375 0.25 0
5.5 0.25 0
5 0.25 0
5.125 0.25 0
5 0.375 0
5.125 0.375 0
5.125 0.25 0
5.25 0.25 0
5.125 0.375 0
5.25 0.375 0
5 0.375 0
5.125 0.375 0
5 0.5 0
5.125 0.5 0
5.125 0.375 0
5.25 0.375 0
5.125 0.5 0
5.25 0.5 0
5.25 0.25 0
5.375 0.25 0
5.25 0.375 0
5.375 0.375 0
5.375 0.25 0
5.5 0.25 0
5.375 0.375 0
5.5 0.375 0
5.25 0.375 0
5.375 0.375 0
5.25 0.5 0
5.375 0.5 0
5.375 0.375 0
5.5 0.375 0
5.375 0.5 0
5.5 0.5 0
5.5 0 0
5.625 0 0
5.5 0.125 0
5.625 0.125 0
5.625 0 0
5.75 0 0
5.625 0.125 0
5.75 0.125 0
5.5 0.125 0
5.625 0.125 0
5.5 0.25 0
5.625 0.25 0
5.625 0.125 0
5.75 0.125 0
5.625 0.25 0
5.75 0.25 0
5.75 0 0
5.875 0 0
5.75 0.125 0
5.875 0.125 0
5.875 0 0
6 0 0
5.875 0.125 0
6 0.125 0
5.75 0.125 0
5.875 0.125 0
5.75 0.25 0
5.875 0.25 0
5.875 0.125 0
6 0.125 0
5.875 0.25 0
6 0.25 0
5.5 0.25 0
5.625 0.25 0
5.5 0.375 0
5.625 0.375 0
5.625 0.25 0
5.75 0.25 0
5.625 0.375 0
5.75 0.375 0
5.5 0.375 0
5.625 0.375 0
5.5 0.5 0
5.625 0.5 0
5.625 0.375 0
5.75 0.375 0
5.625 0.5 0
5.75 0.5 0
5.75 0.25 0
5.875 0.25 0
5.75 0.375 0
5.875 0.375 0
5.875 0.25 0
6 0.25 0
5.875 0.375 0
6 0.375 0
5.75 0.375 0
5.875 0.375 0
5.75 0.5 0
5.875 0.5 0
5.875 0.375 0
6 0.375 0
5.875 0.5 0
6 0.5 0
5 0.5 0
5.125 0.5 0
5 0.625 0
5.125 0.625 0
5.125 0.5 0
5.25 0.5 0
5.125 0.625 0
5.25 0.625 0
5 0.625 0
5.125 0.625 0
5 0.75 0
5.125 0.75 0
5.125 0.625 0
5.25 0.625 0
5.125 0.75 0
5.25 0.75 0
5.25 0.5 0
5.375 0.5 0
5.25 0.625 0
5.375 0.625 0
5.375 0.5 0
5.5 0.5 0
5.375 0.625 0
5.5 0.625 0
5.25 0.625 0
5.375 0.625 0
5.25 0.75 0
5.375 0.75 0
5.375 0.625 0
5.5 0.625 0
5.375 0.75 0
5.5 0.75 0
5 0.75 0
5.125 0.75 0
5 0.875 0
5.125 0.875 0
5.125 0.75 0
5.25 0.75 0
5.125 0.875 0
5.25 0.875 0
5 0.875 0
5.125 0.875 0
5 1 0
5.125 1 0
5.125 0.875 0
5.25 0.875 0
5.125 1 0
5.25 1 0
5.25 0.75 0
5.375 0.75 0
5.25 0.875 0
5.375 0.875 0
5.375 0.75 0
5.5 0.75 0
5.375 0.875 0
5.5 0.875 0
5.25 0.875 0
5.375 0.875 0
5.25 1 0
5.375 1 0
5.375 0.875 0
5.5 0.875 0
5.375 1 0
5.5 1 0
5.5 0.5 0
5.625 0.5 0
5.5 0.625 0
5.625 0.625 0
5.625 0.5 0
5.75 0.5 0
5.625 0.625 0
5.75 0.625 0
5.5 0.625 0
5.625 0.625 0
5.5 0.75 0
5.625 0.75 0
5.625 0.625 0
5.75 0.625 0
5.625 0.75 0
5.75 0.75 0
5.75 0.5 0
5.875 0.5 0
5.75 0.625 0
5.875 0.625 0
5.875 0.5 0
6 0.5 0
5.875 0.625 0
6 0.625 0
5.75 0.625 0
5.875 0.625 0
5.75 0.75 0
5.875 0.75 0
5.875 0.625 0
6 0.625 0
5.875 0.75 0
6 0.75 0
5.5 0.75 0
5.625 0.75 0
5.5 0.875 0
5.625 0.875 0
5.625 0.75 0
5.75 0.75 0
5.625 0.875 0
5.75 0.875 0
5.5 0.875 0
5.625 0.875 0
5.5 1 0
5.625 1 0
5.625 0.875 0
5.75 0.875 0
5.625 1 0
5.75 1 0
5.75 0.75 0
5.875 0.75 0
5.75 0.875 0
5.875 0.875 0
5.875 0.75 0
6 0.75 0
5.875 0.875 0
6 0.875 0
5.75 0.875 0
5.875 0.875 0
5.75 1 0
5.875 1 0
5.875 0.875 0
6 0.875 0
5.875 1 0
6 1 0
4 0 0
4.125 0 0
4 0.125 0
4.125 0.125 0
4.125 0 0
4.25 0 0
4.125 0.125 0
4.25 0.125 0
4 0.125 0
4.125 0.125 0
4 0.25 0
4.125 0.25 0
4.125 0.125 0
4.25 0.125 0
4.125 0.25 0
4.25 0.25 0
4.25 0 0
4.375 0 0
4.25 0.125 0
4.375 0.125 0
4.375 0 0
4.5 0 0
4.375 0.125 0
4.5 0.125 0
4.25 0.125 0
4.375 0.125 0
4.25 0.25 0
4.375 0.25 0
4.375 0.125 0
4.5 0.125 0
4.375 0.25 0
4.5 0.25 0
4 0.25 0
4.125 0.25 0
4 0.375 0
4.125 0.375 0
4.125 0.25 0
4.25 0.25 0
4.125 0.375 0
4.25 0.375 0
4 0.375 0
4.125 0.375 0
4 0.5 0
4.125 0.5 0
4.125 0.375 0
4.25 0.375 0
4.125 0.5 0
4.25 0.5 0
4.25 0.25 0
4.375 0.25 0
4.25 0.375 0
4.375 0.375 0
4.375 0.25 0
4.5 0.25 0
4.375 0.375 0
4.5 0.375 0
4.25 0.375 0
4.375 0.375 0
4.25 0.5 0
4.375 0.5 0
4.375 0.375 0
4.5 0.375 0
4.375 0.5 0
4.5 0.5 0
4.5 0 0
4.625 0 0
4.5 0.125 0
4.625 0.125 0
4.625 0 0
4.75 0 0
4.625 0.125 0
4.75 0.125 0
4.5 0.125 0
4.625 0.125 0
4.5 0.25 0
4.625 0.25 0
4.625 0.125 0
4.75 0.125 0
4.625 0.25 0
4.75 0.25 0
4.75 0 0
4.875 0 0
4.75 0.125 0
4.875 0.125 0
4.875 0 0
5 0 0
4.875 0.125 0
5 0.125 0
4.75 0.125 0
4.875 0.125 0
4.75 0.25 0
4.875 0.25 0
4.875 0.125 0
5 0.125 0
4.875 0.25 0
5 0.25 0
4.5 0.25 0
4.625 0.25 0
4.5 0.375 0
4.625 0.375 0
4.625 0.25 0
4.75 0.25 0
4.625 0.375 0
4.75 0.375 0
4.5 0.375 0
4.625 0.375 0
4.5 0.5 0
4.625 0.5 0
4.625 0.375 0
4.75 0.375 0
4.625 0.5 0
4.75 0.5 0
4.75 0.25 0
4.875 0.25 0
4.75 0.375 0
4.875 0.375 0
4.875 0.25 0
5 0.25 0
4.875 0.375 0
5 0.375 0
4.75 0.375 0
4.875 0.375 0
4.75 0.5 0
4.875 0.5 0
4.875 0.375 0
5 0.375 0
4.875 0.5 0
5 0.5 0
4 0.5 0
4.125 0.5 0
4 0.625 0
4.125 0.625 0
4.125 0.5 0
4.25 0.5 0
4.125 0.625 0
4.25 0.625 0
4 0.625 0
4.125 0.625 0
4 0.75 0
4.125 0.75 0
4.125 0.625 0
4.25 0.625 0
4.125 0.75 0
4.25 0.75 0
4.25 0.5 0
4.375 0.5 0
4.25 0.625 0
4.375 0.625 0
4.375 0.5 0
4.5 0.5 0
4.375 0.625 0
4.5 0.625 0
4.25 0.625 0
4.375 0.625 0
4.25 0.75 0
4.375 0.75 0
4.375 0.625 0
4.5 0.625 0
4.375 0.75 0
4.5 0.75 0
4 0.75 0
4.125 0.75 0
4 0.875 0
4.125 0.875 0
4.125 0.75 0
4.25 0.75 0
4.125 0.875 0
4.25 0.875 0
4 0.875 0
4.125 0.875 0
4 1 0
4.125 1 0
4.125 0.875 0
4.25 0.875 0
4.125 1 0
4.25 1 0
4.25 0.75 0
4.375 0.75 0
4.25 0.875 0
4.375 0.875 0
4.375 0.75 0
4.5 0.75 0
4.375 0.875 0
4.5 0.875 0
4.25 0.875 0
4.375 0.875 0
4.25 1 0
4.375 1 0
4.375 0.875 0
4.5 0.875 0
4.375 1 0
4.5 1 0
4.5 0.5 0
4.625 0.5 0
4.5 0.625 0
4.625 0.625 0
4.625 0.5 0
4.75 0.5 0
4.625 0.625 0
4.75 0.625 0
4.5 0.625 0
4.625 0.625 0
4.5 0.75 0
4.625 0.75 0
4.625 0.625 0
4.75 0.625 0
4.625 0.75 0
4.75 0.75 0
4.75 0.5 0
4.875 0.5 0
4.75 0.625 0
4.875 0.625 0
4.875 0.5 0
5 0.5 0
4.875 0.625 0
5 0.625 0
4.75 0.625 0
4.875 0.625 0
4.75 0.75 0
4.875 0.75 0
4.875 0.625 0
5 0.625 0
4.875 0.75 0
5 0.75 0
4.5 0.75 0
4.625 0.75 0
4.5 0.875 0
4.625 0.875 0
4.625 0.75 0
4.75 0.75 0
4.625 0.875 0
4.75 0.875 0
4.5 0.875 0
4.625 0.875 0
4.5 1 0
4.625 1 0
4.625 0.875 0
4.75 0.875 0
4.625 1 0
4.75 1 0
4.75 0.75 0
4.875 0.75 0
4.75 0.875 0
4.875 0.875 0
4.875 0.75 0
5 0.75 0
4.875 0.875 0
5 0.875 0
4.75 0.875 0
4.875 0.875 0
4.75 1 0
4.875 1 0
4.875 0.875 0
5 0.875 0
4.875 1 0
5 1 0
3 0 0
3.125 0 0
3 0.125 0
3.125 0.125 0
3.125 0 0
3.25 0 0
3.125 0.125 0
3.25 0.125 0
3 0.125 0
3.125 0.125 0
3 0.25 0
3.125 0.25 0
3.125 0.125 0
3.25 0.125 0
3.125 0.25 0
3.25 0.25 0
3.25 0 0
3.375 0 0
3.25 0.125 0
3.375 0.125 0
3.375 0 0
3.5 0 0
3.375 0.125 0
3.5 0.125 0
3.25 0.125 0
3.375 0.125 0
3.25 0.25 0
3.375 0.25 0
3.375 0.125 0
3.5 0.125 0
3.375 0.25 0
3.5 0.25 0
3 0.25 0
3.125 0.25 0
3 0.375 0
3.125 0.375 0
3.125 0.25 0
3.25 0.25 0
3.125 0.375 0
3.25 0.375 0
3 0.375 0
3.125 0.375 0
3 0.5 0
3.125 0.5 0
3.125 0.375 0
3.25 0.375 0
3.125 0.5 0
3.25 0.5 0
3.25 0.25 0
3.375 0.25 0
3.25 0.375 0
3.375 0.375 0
3.375 0.25 0
3.5 0.25 0
3.375 0.375 0
3.5 0.375 0
3.25 0.375 0
3.375 0.375 0
3.25 0.5 0
3.375 0.5 0
3.375 0.375 0
3.5 0.375 0
3.375 0.5 0
3.5 0.5 0
3.5 0 0
3.625 0 0
3.5 0.125 0
3.625 0.125 0
3.625 0 0
3.75 0 0
3.625 0.125 0
3.75 0.125 0
3.5 0.125 0
3.625 0.125 0
3.5 0.25 0
3.625 0.25 0
3.625 0.125 0
3.75 0.125 0
3.625 0.25 0
3.75 0.25 0
3.75 0 0
3.875 0 0
3.75 0.125 0
3.875 0.125 0
3.875 0 0
4 0 0
3.875 0.125 0
4 0.125 0
3.75 0.125 0
3.875 0.125 0
3.75 0.25 0
3.875 0.25 0
3.875 0.125 0
4 0.125 0
3.875 0.25 0
4 0.25 0
3.5 0.25 0
3.625 0.25 0
3.5 0.375 0
3.625 0.375 0
3.625 0.25 0
3.75 0.25 0
3.625 0.375 0
3.75 0.375 0
3.5 0.375 0
3.625 0.375 0
3.5 0.5 0
3.625 0.5 0
3.625 0.375 0
3.75 0.375 0
3.625 0.5 0
3.75 0.5 0
3.75 0.25 0
3.875 0.25 0
3.75 0.375 0
3.875 0.375 0
3.875 0.25 0
4 0.25 0
3.875 0.375 0
4 0.375 0
3.75 0.375 0
3.875 0.375 0
3.75 0.5 0
3.875 0.5 0
3.875 0.375 0
4 0.375 0
3.875 0.5 0
4 0.5 0
3 0.5 0
3.125 0.5 0
3 0.625 0
3.125 0.625 0
3.125 0.5 0
3.25 0.5 0
3.125 0.625 0
3.25 0.625 0
3 0.625 0
3.125 0.625 0
3 0.75 0
3.125 0.75 0
3.125 0.625 0
3.25 0.625 0
3.125 0.75 0
3.25 0.75 0
3.25 0.5 0
3.375 0.5 0
3.25 0.625 0
3.375 0.625 0
3.375 0.5 0
3.5 0.5 0
3.375 0.625 0
3.5 0.625 0
3.25 0.625 0
3.375 0.625 0
3.25 0.75 0
3.375 0.75 0
3.375 0.625 0
3.5 0.625 0
3.375 0.75 0
3.5 0.75 0
3 0.75 0
3.125 0.75 0
3 0.875 0
3.125 0.875 0
3.125 0.75 0
3.25 0.75 0
3.125 0.875 0
3.25 0.875 0
3 0.875 0
3.125 0.875 0
3 1 0
3.125 1 0
3.125 0.875 0
3.25 0.875 0
3.125 1 0
3.25 1 0
3.25 0.75 0
3.375 0.75 0
3.25 0.875 0
3.375 0.875 0
3.375 0.75 0
3.5 0.75 0
3.375 0.875 0
3.5 0.875 0
3.25 0.875 0
3.375 0.875 0
3.25 1 0
3.375 1 0
3.375 0.875 0
3.5 0.875 0
3.375 1 0
3.5 1 0
3.5 0.5 0
3.625 0.5 0
3.5 0.625 0
3.625 0.625 0
3.625 0.5 0
3.75 0.5 0
3.625 0.625 0
3.75 0.625 0
3.5 0.625 0
3.625 0.625 0
3.5 0.75 0
3.625 0.75 0
3.625 0.625 0
3.75 0.625 0
3.625 0.75 0
3.75 0.75 0
3.75 0.5 0
3.875 0.5 0
3.75 0.625 0
3.875 0.625 0
3.875 0.5 0
4 0.5 0
3.875 0.625 0
4 0.625 0
3.75 0.625 0
3.875 0.625 0
3.75 0.75 0
3.875 0.75 0
3.875 0.625 0
4 0.625 0
3.875 0.75 0
4 0.75 0
3.5 0.75 0
3.625 0.75 0
3.5 0.875 0
3.625 0.875 0
3.625 0.75 0
3.75 0.75 0
3.625 0.875 0
3.75 0.875 0
3.5 0.875 0
3.625 0.875 0
3.5 1 0
3.625 1 0
3.625 0.875 0
3.75 0.875 0
3.625 1 0
3.75 1 0
3.75 0.75 0
3.875 0.75 0
3.75 0.875 0
3.875 0.875 0
3.875 0.75 0
4 0.75 0
3.875 0.875 0
4 0.875 0
3.75 0.875 0
3.875 0.875 0
3.75 1 0
3.875 1 0
3.875 0.875 0
4 0.875 0
3.875 1 0
4 1 0
2 0 0
2.125 0 0
2 0.125 0
2.125 0.125 0
2.125 0 0
2.25 0 0
2.125 0.125 0
2.25 0.125 0
2 0.125 0
2.125 0.125 0
2 0.25 0
2.125 0.25 0
2.125 0.125 0
2.25 0.125 0
2.125 0.25 0
2.25 0.25 0
2.25 0 0
2.375 0 0
2.25 0.125 0
2.375 0.125 0
2.375 0 0
2.5 0 0
2.375 0.125 0
2.5 0.125 0
2.25 0.125 0
2.375 0.125 0
2.25 0.25 0
2.375 0.25 0
2.375 0.125 0
2.5 0.125 0
2.375 0.25 0
2.5 0.25 0
2 0.25 0
2.125 0.25 0
2 0.375 0
2.125 0.375 0
2.125 0.25 0
2.25 0.25 0
2.125 0.375 0
2.25 0.375 0
2 0.375 0
2.125 0.375 0
2 0.5 0
2.125 0.5 0
2.125 0.375 0
2.25 0.375 0
2.125 0.5 0
2.25 0.5 0
2.25 0.25 0
2.375 0.25 0
2.25 0.375 0
2.375 0.375 0
2.375 0.25 0
[...]
POINT_DATA 1536
VECTORS displacements double
32.9249 -37.3754 0
33.5143 -33.4451 0
29.1556 -37.552 0
29.5965 -33.6091 0
33.5143 -33.4451 0
34.0648 -29.3742 0
29.5965 -33.6091 0
30.0043 -29.5255 0
29.1556 -37.552 0
29.5965 -33.6091 0
25.5602 -37.6731 0
25.8483 -33.718 0
29.5965 -33.6091 0
30.0043 -29.5255 0
25.8483 -33.718 0
26.107 -29.6202 0
34.0648 -29.3742 0
34.5808 -25.1709 0
30.0043 -29.5255 0
30.3775 -25.3098 0
34.5808 -25.1709 0
35.072 -20.8372 0
30.3775 -25.3098 0
30.7135 -20.9653 0
30.0043 -29.5255 0
30.3775 -25.3098 0
26.107 -29.6202 0
26.3302 -25.3879 0
30.3775 -25.3098 0
30.7135 -20.9653 0
26.3302 -25.3879 0
26.5076 -21.0224 0
25.5602 -37.6731 0
25.8483 -33.718 0
22.0777 -37.7374 0
22.2132 -33.7703 0
25.8483 -33.718 0
26.107 -29.6202 0
22.2132 -33.7703 0
22.3263 -29.6578 0
22.0777 -37.7374 0
22.2132 -33.7703 0
18.6493 -37.7475 0
18.6344 -33.7711 0
22.2132 -33.7703 0
22.3263 -29.6578 0
18.6344 -33.7711 0
18.6085 -29.6474 0
26.107 -29.6202 0
26.3302 -25.3879 0
22.3263 -29.6578 0
22.4098 -25.4079 0
26.3302 -25.3879 0
26.5076 -21.0224 0
22.4098 -25.4079 0
22.4542 -21.025 0
22.3263 -29.6578 0
22.4098 -25.4079 0
18.6085 -29.6474 0
18.5668 -25.3865 0
22.4098 -25.4079 0
22.4542 -21.025 0
18.5668 -25.3865 0
18.5058 -20.9999 0
35.072 -20.8372 0
35.559 -16.3631 0
30.7135 -20.9653 0
31.0034 -16.4767 0
35.559 -16.3631 0
36.0869 -11.6739 0
31.0034 -16.4767 0
31.2189 -11.8014 0
30.7135 -20.9653 0
31.0034 -16.4767 0
26.5076 -21.0224 0
26.6225 -16.5114 0
31.0034 -16.4767 0
31.2189 -11.8014 0
26.6225 -16.5114 0
26.6456 -11.798 0
36.0869 -11.6739 0
36.7147 -6.69791 0
31.2189 -11.8014 0
31.2359 -6.65446 0
36.7147 -6.69791 0
37.138 0 0
31.2359 -6.65446 0
31.3766 -1.25723 0
31.2189 -11.8014 0
31.2359 -6.65446 0
26.6456 -11.798 0
26.6342 -6.85824 0
31.2359 -6.65446 0
31.3766 -1.25723 0
26.6342 -6.85824 0
26.7731 -2.14081 0
26.5076 -21.0224 0
26.6225 -16.5114 0
22.4542 -21.025 0
22.4504 -16.5051 0
26.6225 -16.5114 0
26.6456 -11.798 0
22.4504 -16.5051 0
22.4128 -11.8513 0
22.4542 -21.025 0
22.4504 -16.5051 0
18.5058 -20.9999 0
18.4321 -16.5052 0
22.4504 -16.5051 0
22.4128 -11.8513 0
18.4321 -16.5052 0
18.3772 -11.9495 0
26.6456 -11.798 0
26.6342 -6.85824 0
22.4128 -11.8513 0
22.4238 -7.16762 0
26.6342 -6.85824 0
26.7731 -2.14081 0
22.4238 -7.16762 0
22.5417 -2.75866 0
22.4128 -11.8513 0
22.4238 -7.16762 0
18.3772 -11.9495 0
18.3865 -7.44541 0
22.4238 -7.16762 0
22.5417 -2.75866 0
18.3865 -7.44541 0
18.472 -3.19449 0
18.6493 -37.7475 0
18.6344 -33.7711 0
15.2237 -37.7077 0
15.0631 -33.7275 0
18.6344 -33.7711 0
18.6085 -29.6474 0
15.0631 -33.7275 0
14.9072 -29.5997 0
15.2237 -37.7077 0
15.0631 -33.7275 0
11.7516 -37.6222 0
11.4524 -33.6449 0
15.0631 -33.7275 0
14.9072 -29.5997 0
11.4524 -33.6449 0
11.1765 -29.5221 0
18.6085 -29.6474 0
18.5668 -25.3865 0
14.9072 -29.5997 0
14.756 -25.3387 0
18.5668 -25.3865 0
18.5058 -20.9999 0
14.756 -25.3387 0
14.6138 -20.9648 0
14.9072 -29.5997 0
14.756 -25.3387 0
11.1765 -29.5221 0
10.9287 -25.2713 0
14.756 -25.3387 0
14.6138 -20.9648 0
10.9287 -25.2713 0
10.7178 -20.9197 0
11.7516 -37.6222 0
11.4524 -33.6449 0
8.17495 -37.4928 0
7.7432 -33.5253 0
11.4524 -33.6449 0
11.1765 -29.5221 0
7.7432 -33.5253 0
7.35359 -29.4152 0
8.17495 -37.4928 0
7.7432 -33.5253 0
4.40629 -37.3179 0
3.83819 -33.3664 0
7.7432 -33.5253 0
7.35359 -29.4152 0
3.83819 -33.3664 0
3.33185 -29.2754 0
11.1765 -29.5221 0
10.9287 -25.2713 0
7.35359 -29.4152 0
7.0145 -25.1822 0
10.9287 -25.2713 0
10.7178 -20.9197 0
7.0145 -25.1822 0
6.7371 -20.8559 0
7.35359 -29.4152 0
7.0145 -25.1822 0
3.33185 -29.2754 0
2.89988 -25.0663 0
7.0145 -25.1822 0
6.7371 -20.8559 0
2.89988 -25.0663 0
2.55848 -20.7696 0
18.5058 -20.9999 0
18.4321 -16.5052 0
14.6138 -20.9648 0
14.4945 -16.5129 0
18.4321 -16.5052 0
18.3772 -11.9495 0
14.4945 -16.5129 0
14.4219 -12.0431 0
14.6138 -20.9648 0
14.4945 -16.5129 0
10.7178 -20.9197 0
10.5563 -16.5096 0
14.4945 -16.5129 0
14.4219 -12.0431 0
10.5563 -16.5096 0
10.4572 -12.102 0
18.3772 -11.9495 0
18.3865 -7.44541 0
14.4219 -12.0431 0
14.4153 -7.65002 0
18.3865 -7.44541 0
18.472 -3.19449 0
14.4153 -7.65002 0
14.4638 -3.47168 0
14.4219 -12.0431 0
14.4153 -7.65002 0
10.4572 -12.102 0
10.4256 -7.77328 0
14.4153 -7.65002 0
14.4638 -3.47168 0
10.4256 -7.77328 0
10.4393 -3.60626 0
10.7178 -20.9197 0
10.5563 -16.5096 0
6.7371 -20.8559 0
6.53254 -16.4804 0
10.5563 -16.5096 0
10.4572 -12.102 0
6.53254 -16.4804 0
6.40626 -12.1155 0
6.7371 -20.8559 0
6.53254 -16.4804 0
2.55848 -20.7696 0
2.32451 -16.4286 0
6.53254 -16.4804 0
6.40626 -12.1155 0
2.32451 -16.4286 0
2.20365 -12.0989 0
10.4572 -12.102 0
10.4256 -7.77328 0
6.40626 -12.1155 0
6.35164 -7.82531 0
10.4256 -7.77328 0
10.4393 -3.60626 0
6.35164 -7.82531 0
6.34219 -3.64079 0
6.40626 -12.1155 0
6.35164 -7.82531 0
2.20365 -12.0989 0
2.17128 -7.8342 0
6.35164 -7.82531 0
6.34219 -3.64079 0
2.17128 -7.8342 0
2.17104 -3.64115 0
26.8328 -62.5199 0
27.7201 -60.081 0
24.5855 -62.7825 0
25.2478 -60.334 0
27.7201 -60.081 0
28.5728 -57.4217 0
25.2478 -60.334 0
25.8859 -57.6649 0
24.5855 -62.7825 0
25.2478 -60.334 0
22.5157 -62.9664 0
22.9529 -60.5119 0
25.2478 -60.334 0
25.8859 -57.6649 0
22.9529 -60.5119 0
23.3766 -57.8366 0
28.5728 -57.4217 0
29.3906 -54.5518 0
25.8859 -57.6649 0
26.4992 -54.7849 0
29.3906 -54.5518 0
30.1728 -51.4806 0
26.4992 -54.7849 0
27.0866 -51.7033 0
25.8859 -57.6649 0
26.4992 -54.7849 0
23.3766 -57.8366 0
23.7854 -54.95 0
26.4992 -54.7849 0
27.0866 -51.7033 0
23.7854 -54.95 0
24.1783 -51.8613 0
22.5157 -62.9664 0
22.9529 -60.5119 0
20.5798 -63.0708 0
20.7903 -60.6134 0
22.9529 -60.5119 0
23.3766 -57.8366 0
20.7903 -60.6134 0
20.9969 -57.9355 0
20.5798 -63.0708 0
20.7903 -60.6134 0
18.7015 -63.097 0
18.6869 -60.6395 0
20.7903 -60.6134 0
20.9969 -57.9355 0
18.6869 -60.6395 0
18.6769 -57.9621 0
23.3766 -57.8366 0
23.7854 -54.95 0
20.9969 -57.9355 0
21.1983 -55.0459 0
23.7854 -54.95 0
24.1783 -51.8613 0
21.1983 -55.0459 0
21.3934 -51.9534 0
20.9969 -57.9355 0
21.1983 -55.0459 0
18.6769 -57.9621 0
18.6705 -55.0729 0
21.1983 -55.0459 0
21.3934 -51.9534 0
18.6705 -55.0729 0
18.6666 -51.98 0
30.1728 -51.4806 0
30.9184 -48.2175 0
27.0866 -51.7033 0
27.6471 -48.4294 0
30.9184 -48.2175 0
31.6264 -44.7722 0
27.6471 -48.4294 0
28.1796 -44.9728 0
27.0866 -51.7033 0
27.6471 -48.4294 0
24.1783 -51.8613 0
24.5538 -48.5796 0
27.6471 -48.4294 0
28.1796 -44.9728 0
24.5538 -48.5796 0
24.9105 -45.1144 0
31.6264 -44.7722 0
32.2956 -41.1546 0
28.1796 -44.9728 0
28.6829 -41.3435 0
32.2956 -41.1546 0
32.9249 -37.3754 0
28.6829 -41.3435 0
29.1556 -37.552 0
28.1796 -44.9728 0
28.6829 -41.3435 0
24.9105 -45.1144 0
25.2467 -41.4755 0
28.6829 -41.3435 0
29.1556 -37.552 0
25.2467 -41.4755 0
25.5602 -37.6731 0
24.1783 -51.8613 0
24.5538 -48.5796 0
21.3934 -51.9534 0
21.5806 -48.667 0
24.5538 -48.5796 0
24.9105 -45.1144 0
21.5806 -48.667 0
21.7584 -45.1957 0
21.3934 -51.9534 0
21.5806 -48.667 0
18.6666 -51.98 0
18.6641 -48.6919 0
21.5806 -48.667 0
21.7584 -45.1957 0
18.6641 -48.6919 0
18.6616 -45.2176 0
24.9105 -45.1144 0
25.2467 -41.4755 0
21.7584 -45.1957 0
21.925 -41.5492 0
25.2467 -41.4755 0
25.5602 -37.6731 0
21.925 -41.5492 0
22.0777 -37.7374 0
21.7584 -45.1957 0
21.925 -41.5492 0
18.6616 -45.2176 0
18.6574 -41.5662 0
21.925 -41.5492 0
22.0777 -37.7374 0
18.6574 -41.5662 0
18.6493 -37.7475 0
18.7015 -63.097 0
18.6869 -60.6395 0
16.8095 -63.0475 0
16.5742 -60.5926 0
18.6869 -60.6395 0
18.6769 -57.9621 0
16.5742 -60.5926 0
16.3508 -57.9186 0
16.8095 -63.0475 0
16.5742 -60.5926 0
14.8385 -62.9259 0
14.3885 -60.4761 0
16.5742 -60.5926 0
16.3508 -57.9186 0
14.3885 -60.4761 0
13.9566 -57.8078 0
18.6769 -57.9621 0
18.6705 -55.0729 0
16.3508 -57.9186 0
16.1388 -55.0326 0
18.6705 -55.0729 0
18.6666 -51.98 0
16.1388 -55.0326 0
15.9375 -51.9422 0
16.3508 -57.9186 0
16.1388 -55.0326 0
13.9566 -57.8078 0
13.5429 -54.9273 0
16.1388 -55.0326 0
15.9375 -51.9422 0
13.5429 -54.9273 0
13.1474 -51.8422 0
14.8385 -62.9259 0
14.3885 -60.4761 0
12.7316 -62.735 0
12.0712 -60.2923 0
14.3885 -60.4761 0
13.9566 -57.8078 0
12.0712 -60.2923 0
11.4344 -57.6315 0
12.7316 -62.735 0
12.0712 -60.2923 0
10.4721 -62.4742 0
9.59561 -60.0401 0
12.0712 -60.2923 0
11.4344 -57.6315 0
9.59561 -60.0401 0
8.74823 -57.3884 0
13.9566 -57.8078 0
13.5429 -54.9273 0
11.4344 -57.6315 0
10.8222 -54.7586 0
13.5429 -54.9273 0
13.1474 -51.8422 0
10.8222 -54.7586 0
10.2355 -51.6811 0
11.4344 -57.6315 0
10.8222 -54.7586 0
8.74823 -57.3884 0
7.93215 -54.5252 0
10.8222 -54.7586 0
10.2355 -51.6811 0
7.93215 -54.5252 0
7.1495 -51.4578 0
18.6666 -51.98 0
18.6641 -48.6919 0
15.9375 -51.9422 0
15.7461 -48.6557 0
18.6641 -48.6919 0
18.6616 -45.2176 0
15.7461 -48.6557 0
15.564 -45.1817 0
15.9375 -51.9422 0
15.7461 -48.6557 0
13.1474 -51.8422 0
12.7701 -48.5603 0
15.7461 -48.6557 0
15.564 -45.1817 0
12.7701 -48.5603 0
12.4114 -45.0901 0
18.6616 -45.2176 0
18.6574 -41.5662 0
15.564 -45.1817 0
15.3902 -41.5292 0
18.6574 -41.5662 0
18.6493 -37.7475 0
15.3902 -41.5292 0
15.2237 -37.7077 0
15.564 -45.1817 0
15.3902 -41.5292 0
12.4114 -45.0901 0
12.0717 -41.4409 0
15.3902 -41.5292 0
15.2237 -37.7077 0
12.0717 -41.4409 0
11.7516 -37.6222 0
13.1474 -51.8422 0
12.7701 -48.5603 0
10.2355 -51.6811 0
9.67577 -48.4068 0
12.7701 -48.5603 0
12.4114 -45.0901 0
9.67577 -48.4068 0
9.14436 -44.9444 0
10.2355 -51.6811 0
9.67577 -48.4068 0
7.1495 -51.4578 0
6.40257 -48.1943 0
9.67577 -48.4068 0
9.14436 -44.9444 0
6.40257 -48.1943 0
5.69397 -44.7433 0
12.4114 -45.0901 0
12.0717 -41.4409 0
9.14436 -44.9444 0
8.64323 -41.303 0
12.0717 -41.4409 0
11.7516 -37.6222 0
8.64323 -41.303 0
8.17495 -37.4928 0
9.14436 -44.9444 0
8.64323 -41.303 0
5.69397 -44.7433 0
5.02703 -41.1144 0
8.64323 -41.303 0
8.17495 -37.4928 0
5.02703 -41.1144 0
4.40629 -37.3179 0
18.569 -72.4897 0
19.6866 -72.3189 0
18.569 -72.8141 0
19.3689 -72.6415 0
19.6866 -72.3189 0
20.793 -71.8108 0
19.3689 -72.6415 0
20.1629 -72.1283 0
18.569 -72.8141 0
19.3689 -72.6415 0
18.569 -73.0647 0
19.1023 -72.8888 0
19.3689 -72.6415 0
20.1629 -72.1283 0
19.1023 -72.8888 0
19.6283 -72.3667 0
20.793 -71.8108 0
21.8787 -70.9769 0
20.1629 -72.1283 0
20.9457 -71.2869 0
21.8787 -70.9769 0
22.9366 -69.8336 0
20.9457 -71.2869 0
21.7132 -70.1348 0
20.1629 -72.1283 0
20.9457 -71.2869 0
19.6283 -72.3667 0
20.1424 -71.5138 0
20.9457 -71.2869 0
21.7132 -70.1348 0
20.1424 -71.5138 0
20.6427 -70.3502 0
18.569 -73.0647 0
19.1023 -72.8888 0
18.569 -73.2902 0
18.8761 -73.1054 0
19.1023 -72.8888 0
19.6283 -72.3667 0
18.8761 -73.1054 0
19.1688 -72.5609 0
18.569 -73.2902 0
18.8761 -73.1054 0
18.569 -73.5152 0
18.6679 -73.3125 0
18.8761 -73.1054 0
19.1688 -72.5609 0
18.6679 -73.3125 0
18.7405 -72.7249 0
19.6283 -72.3667 0
20.1424 -71.5138 0
19.1688 -72.5609 0
19.4398 -71.6813 0
20.1424 -71.5138 0
20.6427 -70.3502 0
19.4398 -71.6813 0
19.6896 -70.494 0
19.1688 -72.5609 0
19.4398 -71.6813 0
18.7405 -72.7249 0
18.7762 -71.7969 0
19.4398 -71.6813 0
19.6896 -70.494 0
18.7762 -71.7969 0
18.7806 -70.5703 0
22.9366 -69.8336 0
23.9624 -68.3994 0
21.7132 -70.1348 0
22.4627 -68.691 0
23.9624 -68.3994 0
24.954 -66.692 0
22.4627 -68.691 0
23.192 -66.974 0
21.7132 -70.1348 0
22.4627 -68.691 0
20.6427 -70.3502 0
21.1295 -68.8965 0
22.4627 -68.691 0
23.192 -66.974 0
21.1295 -68.8965 0
21.6036 -67.1712 0
24.954 -66.692 0
25.9108 -64.7276 0
23.192 -66.974 0
23.9 -64.9998 0
25.9108 -64.7276 0
26.8328 -62.5199 0
23.9 -64.9998 0
24.5855 -62.7825 0
23.192 -66.974 0
23.9 -64.9998 0
21.6036 -67.1712 0
22.0657 -65.19 0
23.9 -64.9998 0
24.5855 -62.7825 0
22.0657 -65.19 0
22.5157 -62.9664 0
20.6427 -70.3502 0
21.1295 -68.8965 0
19.6896 -70.494 0
19.9237 -69.023 0
21.1295 -68.8965 0
21.6036 -67.1712 0
19.9237 -69.023 0
20.1477 -67.2864 0
19.6896 -70.494 0
19.9237 -69.023 0
18.7806 -70.5703 0
18.7659 -69.0731 0
19.9237 -69.023 0
20.1477 -67.2864 0
18.7659 -69.0731 0
18.7434 -67.3217 0
21.6036 -67.1712 0
22.0657 -65.19 0
20.1477 -67.2864 0
20.3657 -65.2985 0
22.0657 -65.19 0
22.5157 -62.9664 0
20.3657 -65.2985 0
20.5798 -63.0708 0
20.1477 -67.2864 0
20.3657 -65.2985 0
18.7434 -67.3217 0
18.7207 -65.327 0
20.3657 -65.2985 0
20.5798 -63.0708 0
18.7207 -65.327 0
18.7015 -63.097 0
18.569 -73.5152 0
18.6679 -73.3125 0
18.569 -73.7429 0
18.4581 -73.507 0
18.6679 -73.3125 0
18.7405 -72.7249 0
18.4581 -73.507 0
18.3029 -72.8467 0
18.569 -73.7429 0
18.4581 -73.507 0
18.569 -73.962 0
18.2204 -73.667 0
18.4581 -73.507 0
18.3029 -72.8467 0
18.2204 -73.667 0
17.8135 -72.8912 0
18.7405 -72.7249 0
18.7762 -71.7969 0
18.3029 -72.8467 0
18.0944 -71.8471 0
18.7762 -71.7969 0
18.7806 -70.5703 0
18.0944 -71.8471 0
17.8463 -70.569 0
18.3029 -72.8467 0
18.0944 -71.8471 0
17.8135 -72.8912 0
17.3295 -71.7966 0
18.0944 -71.8471 0
17.8463 -70.569 0
17.3295 -71.7966 0
16.8113 -70.4702 0
18.569 -73.962 0
18.2204 -73.667 0
18.569 -74.1615 0
17.9413 -73.7382 0
18.2204 -73.667 0
17.8135 -72.8912 0
17.9413 -73.7382 0
17.183 -72.7734 0
18.569 -74.1615 0
17.9413 -73.7382 0
18.569 -74.2124 0
17.3345 -73.6127 0
17.9413 -73.7382 0
17.183 -72.7734 0
17.3345 -73.6127 0
16.2271 -72.4699 0
17.8135 -72.8912 0
17.3295 -71.7966 0
17.183 -72.7734 0
16.3774 -71.6079 0
17.3295 -71.7966 0
16.8113 -70.4702 0
16.3774 -71.6079 0
15.6004 -70.2675 0
17.183 -72.7734 0
16.3774 -71.6079 0
16.2271 -72.4699 0
15.2097 -71.316 0
16.3774 -71.6079 0
15.6004 -70.2675 0
15.2097 -71.316 0
14.2209 -69.978 0
18.7806 -70.5703 0
18.7659 -69.0731 0
17.8463 -70.569 0
17.5809 -69.0421 0
18.7659 -69.0731 0
18.7434 -67.3217 0
17.5809 -69.0421 0
17.3151 -67.2768 0
17.8463 -70.569 0
17.5809 -69.0421 0
16.8113 -70.4702 0
16.2955 -68.9236 0
17.5809 -69.0421 0
17.3151 -67.2768 0
16.2955 -68.9236 0
15.7928 -67.1516 0
18.7434 -67.3217 0
18.7207 -65.327 0
17.3151 -67.2768 0
17.0568 -65.2773 0
18.7207 -65.327 0
18.7015 -63.097 0
17.0568 -65.2773 0
16.8095 -63.0475 0
17.3151 -67.2768 0
17.0568 -65.2773 0
15.7928 -67.1516 0
15.3067 -65.1521 0
17.0568 -65.2773 0
16.8095 -63.0475 0
15.3067 -65.1521 0
14.8385 -62.9259 0
16.8113 -70.4702 0
16.2955 -68.9236 0
15.6004 -70.2675 0
14.849 -68.7182 0
16.2955 -68.9236 0
15.7928 -67.1516 0
14.849 -68.7182 0
14.1208 -66.949 0
15.6004 -70.2675 0
14.849 -68.7182 0
14.2209 -69.978 0
13.2518 -68.4352 0
14.849 -68.7182 0
14.1208 -66.949 0
13.2518 -68.4352 0
12.3026 -66.6727 0
15.7928 -67.1516 0
15.3067 -65.1521 0
14.1208 -66.949 0
13.415 -64.9548 0
15.3067 -65.1521 0
14.8385 -62.9259 0
13.415 -64.9548 0
12.7316 -62.735 0
14.1208 -66.949 0
13.415 -64.9548 0
12.3026 -66.6727 0
11.3752 -64.6859 0
13.415 -64.9548 0
12.7316 -62.735 0
11.3752 -64.6859 0
10.4721 -62.4742 0
10.3053 -62.5199 0
11.2272 -64.7276 0
12.5525 -62.7825 0
13.238 -64.9998 0
11.2272 -64.7276 0
12.184 -66.692 0
13.238 -64.9998 0
13.946 -66.974 0
12.5525 -62.7825 0
13.238 -64.9998 0
14.6224 -62.9664 0
15.0723 -65.19 0
13.238 -64.9998 0
13.946 -66.974 0
15.0723 -65.19 0
15.5344 -67.1712 0
12.184 -66.692 0
13.1756 -68.3994 0
13.946 -66.974 0
14.6753 -68.691 0
13.1756 -68.3994 0
14.2014 -69.8336 0
14.6753 -68.691 0
15.4248 -70.1348 0
13.946 -66.974 0
14.6753 -68.691 0
15.5344 -67.1712 0
16.0085 -68.8965 0
14.6753 -68.691 0
15.4248 -70.1348 0
16.0085 -68.8965 0
16.4953 -70.3502 0
14.6224 -62.9664 0
15.0723 -65.19 0
16.5583 -63.0708 0
16.7723 -65.2985 0
15.0723 -65.19 0
15.5344 -67.1712 0
16.7723 -65.2985 0
16.9903 -67.2864 0
16.5583 -63.0708 0
16.7723 -65.2985 0
18.4365 -63.097 0
18.4173 -65.327 0
16.7723 -65.2985 0
16.9903 -67.2864 0
18.4173 -65.327 0
18.3946 -67.3217 0
15.5344 -67.1712 0
16.0085 -68.8965 0
16.9903 -67.2864 0
17.2143 -69.023 0
16.0085 -68.8965 0
16.4953 -70.3502 0
17.2143 -69.023 0
17.4484 -70.494 0
16.9903 -67.2864 0
17.2143 -69.023 0
18.3946 -67.3217 0
18.3721 -69.0731 0
17.2143 -69.023 0
17.4484 -70.494 0
18.3721 -69.0731 0
18.3574 -70.5703 0
14.2014 -69.8336 0
15.2593 -70.9769 0
15.4248 -70.1348 0
16.1923 -71.2869 0
15.2593 -70.9769 0
16.345 -71.8108 0
16.1923 -71.2869 0
16.9751 -72.1283 0
15.4248 -70.1348 0
16.1923 -71.2869 0
16.4953 -70.3502 0
16.9956 -71.5138 0
16.1923 -71.2869 0
16.9751 -72.1283 0
16.9956 -71.5138 0
17.5097 -72.3667 0
16.345 -71.8108 0
17.4514 -72.3189 0
16.9751 -72.1283 0
17.7691 -72.6415 0
17.4514 -72.3189 0
18.569 -72.4897 0
17.7691 -72.6415 0
18.569 -72.8141 0
16.9751 -72.1283 0
17.7691 -72.6415 0
17.5097 -72.3667 0
18.0358 -72.8888 0
17.7691 -72.6415 0
18.569 -72.8141 0
18.0358 -72.8888 0
18.569 -73.0647 0
16.4953 -70.3502 0
16.9956 -71.5138 0
17.4484 -70.494 0
17.6983 -71.6813 0
16.9956 -71.5138 0
17.5097 -72.3667 0
17.6983 -71.6813 0
17.9692 -72.5609 0
17.4484 -70.494 0
17.6983 -71.6813 0
18.3574 -70.5703 0
18.3619 -71.7969 0
17.6983 -71.6813 0
17.9692 -72.5609 0
18.3619 -71.7969 0
18.3975 -72.7249 0
17.5097 -72.3667 0
18.0358 -72.8888 0
17.9692 -72.5609 0
18.2619 -73.1054 0
18.0358 -72.8888 0
18.569 -73.0647 0
18.2619 -73.1054 0
18.569 -73.2902 0
17.9692 -72.5609 0
18.2619 -73.1054 0
18.3975 -72.7249 0
18.4701 -73.3125 0
18.2619 -73.1054 0
18.569 -73.2902 0
18.4701 -73.3125 0
18.569 -73.5152 0
18.4365 -63.097 0
18.4173 -65.327 0
20.3285 -63.0475 0
20.0812 -65.2773 0
18.4173 -65.327 0
18.3946 -67.3217 0
20.0812 -65.2773 0
19.8229 -67.2768 0
20.3285 -63.0475 0
20.0812 -65.2773 0
22.2995 -62.9259 0
21.8313 -65.1521 0
20.0812 -65.2773 0
19.8229 -67.2768 0
21.8313 -65.1521 0
21.3452 -67.1516 0
18.3946 -67.3217 0
18.3721 -69.0731 0
19.8229 -67.2768 0
19.5571 -69.0421 0
18.3721 -69.0731 0
18.3574 -70.5703 0
19.5571 -69.0421 0
19.2917 -70.569 0
19.8229 -67.2768 0
19.5571 -69.0421 0
21.3452 -67.1516 0
20.8425 -68.9236 0
19.5571 -69.0421 0
19.2917 -70.569 0
20.8425 -68.9236 0
20.3268 -70.4702 0
22.2995 -62.9259 0
21.8313 -65.1521 0
24.4064 -62.735 0
23.723 -64.9548 0
21.8313 -65.1521 0
21.3452 -67.1516 0
23.723 -64.9548 0
23.0173 -66.949 0
24.4064 -62.735 0
23.723 -64.9548 0
26.666 -62.4742 0
25.7628 -64.6859 0
23.723 -64.9548 0
23.0173 -66.949 0
25.7628 -64.6859 0
24.8354 -66.6727 0
21.3452 -67.1516 0
20.8425 -68.9236 0
23.0173 -66.949 0
22.2891 -68.7182 0
20.8425 -68.9236 0
20.3268 -70.4702 0
22.2891 -68.7182 0
21.5377 -70.2675 0
23.0173 -66.949 0
22.2891 -68.7182 0
24.8354 -66.6727 0
23.8862 -68.4352 0
22.2891 -68.7182 0
21.5377 -70.2675 0
23.8862 -68.4352 0
22.9171 -69.978 0
18.3574 -70.5703 0
18.3619 -71.7969 0
19.2917 -70.569 0
19.0436 -71.8471 0
18.3619 -71.7969 0
18.3975 -72.7249 0
19.0436 -71.8471 0
18.8351 -72.8467 0
19.2917 -70.569 0
19.0436 -71.8471 0
20.3268 -70.4702 0
19.8085 -71.7966 0
19.0436 -71.8471 0
18.8351 -72.8467 0
19.8085 -71.7966 0
19.3246 -72.8912 0
18.3975 -72.7249 0
18.4701 -73.3125 0
18.8351 -72.8467 0
18.6799 -73.507 0
18.4701 -73.3125 0
18.569 -73.5152 0
18.6799 -73.507 0
18.569 -73.7429 0
18.8351 -72.8467 0
18.6799 -73.507 0
19.3246 -72.8912 0
18.9176 -73.667 0
18.6799 -73.507 0
18.569 -73.7429 0
18.9176 -73.667 0
18.569 -73.962 0
20.3268 -70.4702 0
19.8085 -71.7966 0
21.5377 -70.2675 0
20.7606 -71.6079 0
19.8085 -71.7966 0
19.3246 -72.8912 0
20.7606 -71.6079 0
19.955 -72.7734 0
21.5377 -70.2675 0
20.7606 -71.6079 0
22.9171 -69.978 0
21.9283 -71.316 0
20.7606 -71.6079 0
19.955 -72.7734 0
21.9283 -71.316 0
20.911 -72.4699 0
19.3246 -72.8912 0
18.9176 -73.667 0
19.955 -72.7734 0
19.1967 -73.7382 0
18.9176 -73.667 0
18.569 -73.962 0
19.1967 -73.7382 0
18.569 -74.1615 0
19.955 -72.7734 0
19.1967 -73.7382 0
20.911 -72.4699 0
19.8036 -73.6127 0
19.1967 -73.7382 0
18.569 -74.1615 0
19.8036 -73.6127 0
18.569 -74.2124 0
4.2131 -37.3754 0
4.84245 -41.1546 0
7.98242 -37.552 0
8.45515 -41.3435 0
4.84245 -41.1546 0
5.5116 -44.7722 0
8.45515 -41.3435 0
8.95842 -44.9728 0
7.98242 -37.552 0
8.45515 -41.3435 0
11.5778 -37.6731 0
11.8914 -41.4755 0
8.45515 -41.3435 0
8.95842 -44.9728 0
11.8914 -41.4755 0
12.2275 -45.1144 0
5.5116 -44.7722 0
6.21959 -48.2175 0
8.95842 -44.9728 0
9.49092 -48.4294 0
6.21959 -48.2175 0
6.96526 -51.4806 0
9.49092 -48.4294 0
10.0514 -51.7033 0
8.95842 -44.9728 0
9.49092 -48.4294 0
12.2275 -45.1144 0
12.5843 -48.5796 0
9.49092 -48.4294 0
10.0514 -51.7033 0
12.5843 -48.5796 0
12.9598 -51.8613 0
11.5778 -37.6731 0
11.8914 -41.4755 0
15.0603 -37.7374 0
15.213 -41.5492 0
11.8914 -41.4755 0
12.2275 -45.1144 0
15.213 -41.5492 0
15.3796 -45.1957 0
15.0603 -37.7374 0
15.213 -41.5492 0