# vtk DataFile Version 3.0
#This file was generated by the deal.II library on 2020/9/2 at 8:39:10
ASCII
DATASET UNSTRUCTURED_GRID

POINTS 1536 double
5 0 0
5.125 0 0
5 0.125 0
5.125 0.125 0
5.125 0 0
5.25 0 0
5.125 0.125 0
5.25 0.125 0
5 0.125 0
5.125 0.125 0
5 0.25 0
5.125 0.25 0
5.125 0.125 0
5.25 0.125 0
5.125 0.25 0
5.25 0.25 0
5.25 0 0
5.375 0 0
5.25 0.125 0
5.375 0.125 0
5.375 0 0
5.5 0 0
5.375 0.125 0
5.5 0.125 0
5.25 0.125 0
5.375 0.125 0
5.25 0.25 0
5.375 0.25 0
5.375 0.125 0
5.5 0.125 0
5.375 0.25 0
5.5 0.25 0
5 0.25 0
5.125 0.25 0
5 0.375 0
5.125 0.375 0
5.125 0.25 0
5.25 0.25 0
5.125 0.375 0
5.25 0.375 0
5 0.375 0
5.125 0.375 0
5 0.5 0
5.125 0.5 0
5.125 0.375 0
5.25 0.375 0
5.125 0.5 0
5.25 0.5 0
5.25 0.25 0
5.375 0.25 0
5.25 0.375 0
5.375 0.375 0
5.375 0.25 0
5.5 0.25 0
5.375 0.375 0
5.5 0.375 0
5.25 0.375 0
5.375 0.375 0
5.25 0.5 0
5.375 0.5 0
5.375 0.375 0
5.5 0.375 0
5.375 0.5 0
5.5 0.5 0
5.5 0 0
5.625 0 0
5.5 0.125 0
5.625 0.125 0
5.625 0 0
5.75 0 0
5.625 0.125 0
5.75 0.125 0
5.5 0.125 0
5.625 0.125 0
5.5 0.25 0
5.625 0.25 0
5.625 0.125 0
5.75 0.125 0
5.625 0.25 0
5.75 0.25 0
5.75 0 0
5.875 0 0
5.75 0.125 0
5.875 0.125 0
5.875 0 0
6 0 0
5.875 0.125 0
6 0.125 0
5.75 0.125 0
5.875 0.125 0
5.75 0.25 0
5.875 0.25 0
5.875 0.125 0
6 0.125 0
5.875 0.25 0
6 0.25 0
5.5 0.25 0
5.625 0.25 0
5.5 0.375 0
5.625 0.375 0
5.625 0.25 0
5.75 0.25 0
5.625 0.375 0
5.75 0.375 0
5.5 0.375 0
5.625 0.375 0
5.5 0.5 0
5.625 0.5 0
5.625 0.375 0
5.75 0.375 0
5.625 0.5 0
5.75 0.5 0
5.75 0.25 0
5.875 0.25 0
5.75 0.375 0
5.875 0.375 0
5.875 0.25 0
6 0.25 0
5.875 0.375 0
6 0.375 0
5.75 0.375 0
5.875 0.375 0
5.75 0.5 0
5.875 0.5 0
5.875 0.375 0
6 0.375 0
5.875 0.5 0
6 0.5 0
5 0.5 0
5.125 0.5 0
5 0.625 0
5.125 0.625 0
5.125 0.5 0
5.25 0.5 0
5.125 0.625 0
5.25 0.625 0
5 0.625 0
5.125 0.625 0
5 0.75 0
5.125 0.75 0
5.125 0.625 0
5.25 0.625 0
5.125 0.75 0
5.25 0.75 0
5.25 0.5 0
5.375 0.5 0
5.25 0.625 0
5.375 0.625 0
5.375 0.5 0
5.5 0.5 0
5.375 0.625 0
5.5 0.625 0
5.25 0.625 0
5.375 0.625 0
5.25 0.75 0
5.375 0.75 0
5.375 0.625 0
5.5 0.625 0
5.375 0.75 0
5.5 0.75 0
5 0.75 0
5.125 0.75 0
5 0.875 0
5.125 0.875 0
5.125 0.75 0
5.25 0.75 0
5.125 0.875 0
5.25 0.875 0
5 0.875 0
5.125 0.875 0
5 1 0
5.125 1 0
5.125 0.875 0
5.25 0.875 0
5.125 1 0
5.25 1 0
5.25 0.75 0
5.375 0.75 0
5.25 0.875 0
5.375 0.875 0
5.375 0.75 0
5.5 0.75 0
5.375 0.875 0
5.5 0.875 0
5.25 0.875 0
5.375 0.875 0
5.25 1 0
5.375 1 0
5.375 0.875 0
5.5 0.875 0
5.375 1 0
5.5 1 0
5.5 0.5 0
5.625 0.5 0
5.5 0.625 0
5.625 0.625 0
5.625 0.5 0
5.75 0.5 0
5.625 0.625 0
5.75 0.625 0
5.5 0.625 0
5.625 0.625 0
5.5 0.75 0
5.625 0.75 0
5.625 0.625 0
5.75 0.625 0
5.625 0.75 0
5.75 0.75 0
5.75 0.5 0
5.875 0.5 0
5.75 0.625 0
5.875 0.625 0
5.875 0.5 0
6 0.5 0
5.875 0.625 0
6 0.625 0
5.75 0.625 0
5.875 0.625 0
5.75 0.75 0
5.875 0.75 0
5.875 0.625 0
6 0.625 0
5.875 0.75 0
6 0.75 0
5.5 0.75 0
5.625 0.75 0
5.5 0.875 0
5.625 0.875 0
5.625 0.75 0
5.75 0.75 0
5.625 0.875 0
5.75 0.875 0
5.5 0.875 0
5.625 0.875 0
5.5 1 0
5.625 1 0
5.625 0.875 0
5.75 0.875 0
5.625 1 0
5.75 1 0
5.75 0.75 0
5.875 0.75 0
5.75 0.875 0
5.875 0.875 0
5.875 0.75 0
6 0.75 0
5.875 0.875 0
6 0.875 0
5.75 0.875 0
5.875 0.875 0
5.75 1 0
5.875 1 0
5.875 0.875 0
6 0.875 0
5.875 1 0
6 1 0
4 0 0
4.125 0 0
4 0.125 0
4.125 0.125 0
4.125 0 0
4.25 0 0
4.125 0.125 0
4.25 0.125 0
4 0.125 0
4.125 0.125 0
4 0.25 0
4.125 0.25 0
4.125 0.125 0
4.25 0.125 0
4.125 0.25 0
4.25 0.25 0
4.25 0 0
4.375 0 0
4.25 0.125 0
4.375 0.125 0
4.375 0 0
4.5 0 0
4.375 0.125 0
4.5 0.125 0
4.25 0.125 0
4.375 0.125 0
4.25 0.25 0
4.375 0.25 0
4.375 0.125 0
4.5 0.125 0
4.375 0.25 0
4.5 0.25 0
4 0.25 0
4.125 0.25 0
4 0.375 0
4.125 0.375 0
4.125 0.25 0
4.25 0.25 0
4.125 0.375 0
4.25 0.375 0
4 0.375 0
4.125 0.375 0
4 0.5 0
4.125 0.5 0
4.125 0.375 0
4.25 0.375 0
4.125 0.5 0
4.25 0.5 0
4.25 0.25 0
4.375 0.25 0
4.25 0.375 0
4.375 0.375 0
4.375 0.25 0
4.5 0.25 0
4.375 0.375 0
4.5 0.375 0
4.25 0.375 0
4.375 0.375 0
4.25 0.5 0
4.375 0.5 0
4.375 0.375 0
4.5 0.375 0
4.375 0.5 0
4.5 0.5 0
4.5 0 0
4.625 0 0
4.5 0.125 0
4.625 0.125 0
4.625 0 0
4.75 0 0
4.625 0.125 0
4.75 0.125 0
4.5 0.125 0
4.625 0.125 0
4.5 0.25 0
4.625 0.25 0
4.625 0.125 0
4.75 0.125 0
4.625 0.25 0
4.75 0.25 0
4.75 0 0
4.875 0 0
4.75 0.125 0
4.875 0.125 0
4.875 0 0
5 0 0
4.875 0.125 0
5 0.125 0
4.75 0.125 0
4.875 0.125 0
4.75 0.25 0
4.875 0.25 0
4.875 0.125 0
5 0.125 0
4.875 0.25 0
5 0.25 0
4.5 0.25 0
4.625 0.25 0
4.5 0.375 0
4.625 0.375 0
4.625 0.25 0
4.75 0.25 0
4.625 0.375 0
4.75 0.375 0
4.5 0.375 0
4.625 0.375 0
4.5 0.5 0
4.625 0.5 0
4.625 0.375 0
4.75 0.375 0
4.625 0.5 0
4.75 0.5 0
4.75 0.25 0
4.875 0.25 0
4.75 0.375 0
4.875 0.375 0
4.875 0.25 0
5 0.25 0
4.875 0.375 0
5 0.375 0
4.75 0.375 0
4.875 0.375 0
4.75 0.5 0
4.875 0.5 0
4.875 0.375 0
5 0.375 0
4.875 0.5 0
5 0.5 0
4 0.5 0
4.125 0.5 0
4 0.625 0
4.125 0.625 0
4.125 0.5 0
4.25 0.5 0
4.125 0.625 0
4.25 0.625 0
4 0.625 0
4.125 0.625 0
4 0.75 0
4.125 0.75 0
4.125 0.625 0
4.25 0.625 0
4.125 0.75 0
4.25 0.75 0
4.25 0.5 0
4.375 0.5 0
4.25 0.625 0
4.375 0.625 0
4.375 0.5 0
4.5 0.5 0
4.375 0.625 0
4.5 0.625 0
4.25 0.625 0
4.375 0.625 0
4.25 0.75 0
4.375 0.75 0
4.375 0.625 0
4.5 0.625 0
4.375 0.75 0
4.5 0.75 0
4 0.75 0
4.125 0.75 0
4 0.875 0
4.125 0.875 0
4.125 0.75 0
4.25 0.75 0
4.125 0.875 0
4.25 0.875 0
4 0.875 0
4.125 0.875 0
4 1 0
4.125 1 0
4.125 0.875 0
4.25 0.875 0
4.125 1 0
4.25 1 0
4.25 0.75 0
4.375 0.75 0
4.25 0.875 0
4.375 0.875 0
4.375 0.75 0
4.5 0.75 0
4.375 0.875 0
4.5 0.875 0
4.25 0.875 0
4.375 0.875 0
4.25 1 0
4.375 1 0
4.375 0.875 0
4.5 0.875 0
4.375 1 0
4.5 1 0
4.5 0.5 0
4.625 0.5 0
4.5 0.625 0
4.625 0.625 0
4.625 0.5 0
4.75 0.5 0
4.625 0.625 0
4.75 0.625 0
4.5 0.625 0
4.625 0.625 0
4.5 0.75 0
4.625 0.75 0
4.625 0.625 0
4.75 0.625 0
4.625 0.75 0
4.75 0.75 0
4.75 0.5 0
4.875 0.5 0
4.75 0.625 0
4.875 0.625 0
4.875 0.5 0
5 0.5 0
4.875 0.625 0
5 0.625 0
4.75 0.625 0
4.875 0.625 0
4.75 0.75 0
4.875 0.75 0
4.875 0.625 0
5 0.625 0
4.875 0.75 0
5 0.75 0
4.5 0.75 0
4.625 0.75 0
4.5 0.875 0
4.625 0.875 0
4.625 0.75 0
4.75 0.75 0
4.625 0.875 0
4.75 0.875 0
4.5 0.875 0
4.625 0.875 0
4.5 1 0
4.625 1 0
4.625 0.875 0
4.75 0.875 0
4.625 1 0
4.75 1 0
4.75 0.75 0
4.875 0.75 0
4.75 0.875 0
4.875 0.875 0
4.875 0.75 0
5 0.75 0
4.875 0.875 0
5 0.875 0
4.75 0.875 0
4.875 0.875 0
4.75 1 0
4.875 1 0
4.875 0.875 0
5 0.875 0
4.875 1 0
5 1 0
3 0 0
3.125 0 0
3 0.125 0
3.125 0.125 0
3.125 0 0
3.25 0 0
3.125 0.125 0
3.25 0.125 0
3 0.125 0
3.125 0.125 0
3 0.25 0
3.125 0.25 0
3.125 0.125 0
3.25 0.125 0
3.125 0.25 0
3.25 0.25 0
3.25 0 0
3.375 0 0
3.25 0.125 0
3.375 0.125 0
3.375 0 0
3.5 0 0
3.375 0.125 0
3.5 0.125 0
3.25 0.125 0
3.375 0.125 0
3.25 0.25 0
3.375 0.25 0
3.375 0.125 0
3.5 0.125 0
3.375 0.25 0
3.5 0.25 0
3 0.25 0
3.125 0.25 0
3 0.375 0
3.125 0.375 0
3.125 0.25 0
3.25 0.25 0
3.125 0.375 0
3.25 0.375 0
3 0.375 0
3.125 0.375 0
3 0.5 0
3.125 0.5 0
3.125 0.375 0
3.25 0.375 0
3.125 0.5 0
3.25 0.5 0
3.25 0.25 0
3.375 0.25 0
3.25 0.375 0
3.375 0.375 0
3.375 0.25 0
3.5 0.25 0
3.375 0.375 0
3.5 0.375 0
3.25 0.375 0
3.375 0.375 0
3.25 0.5 0
3.375 0.5 0
3.375 0.375 0
3.5 0.375 0
3.375 0.5 0
3.5 0.5 0
3.5 0 0
3.625 0 0
3.5 0.125 0
3.625 0.125 0
3.625 0 0
3.75 0 0
3.625 0.125 0
3.75 0.125 0
3.5 0.125 0
3.625 0.125 0
3.5 0.25 0
3.625 0.25 0
3.625 0.125 0
3.75 0.125 0
3.625 0.25 0
3.75 0.25 0
3.75 0 0
3.875 0 0
3.75 0.125 0
3.875 0.125 0
3.875 0 0
4 0 0
3.875 0.125 0
4 0.125 0
3.75 0.125 0
3.875 0.125 0
3.75 0.25 0
3.875 0.25 0
3.875 0.125 0
4 0.125 0
3.875 0.25 0
4 0.25 0
3.5 0.25 0
3.625 0.25 0
3.5 0.375 0
3.625 0.375 0
3.625 0.25 0
3.75 0.25 0
3.625 0.375 0
3.75 0.375 0
3.5 0.375 0
3.625 0.375 0
3.5 0.5 0
3.625 0.5 0
3.625 0.375 0
3.75 0.375 0
3.625 0.5 0
3.75 0.5 0
3.75 0.25 0
3.875 0.25 0
3.75 0.375 0
3.875 0.375 0
3.875 0.25 0
4 0.25 0
3.875 0.375 0
4 0.375 0
3.75 0.375 0
3.875 0.375 0
3.75 0.5 0
3.875 0.5 0
3.875 0.375 0
4 0.375 0
3.875 0.5 0
4 0.5 0
3 0.5 0
3.125 0.5 0
3 0.625 0
3.125 0.625 0
3.125 0.5 0
3.25 0.5 0
3.125 0.625 0
3.25 0.625 0
3 0.625 0
3.125 0.625 0
3 0.75 0
3.125 0.75 0
3.125 0.625 0
3.25 0.625 0
3.125 0.75 0
3.25 0.75 0
3.25 0.5 0
3.375 0.5 0
3.25 0.625 0
3.375 0.625 0
3.375 0.5 0
3.5 0.5 0
3.375 0.625 0
3.5 0.625 0
3.25 0.625 0
3.375 0.625 0
3.25 0.75 0
3.375 0.75 0
3.375 0.625 0
3.5 0.625 0
3.375 0.75 0
3.5 0.75 0
3 0.75 0
3.125 0.75 0
3 0.875 0
3.125 0.875 0
3.125 0.75 0
3.25 0.75 0
3.125 0.875 0
3.25 0.875 0
3 0.875 0
3.125 0.875 0
3 1 0
3.125 1 0
3.125 0.875 0
3.25 0.875 0
3.125 1 0
3.25 1 0
3.25 0.75 0
3.375 0.75 0
3.25 0.875 0
3.375 0.875 0
3.375 0.75 0
3.5 0.75 0
3.375 0.875 0
3.5 0.875 0
3.25 0.875 0
3.375 0.875 0
3.25 1 0
3.375 1 0
3.375 0.875 0
3.5 0.875 0
3.375 1 0
3.5 1 0
3.5 0.5 0
3.625 0.5 0
3.5 0.625 0
3.625 0.625 0
3.625 0.5 0
3.75 0.5 0
3.625 0.625 0
3.75 0.625 0
3.5 0.625 0
3.625 0.625 0
3.5 0.75 0
3.625 0.75 0
3.625 0.625 0
3.75 0.625 0
3.625 0.75 0
3.75 0.75 0
3.75 0.5 0
3.875 0.5 0
3.75 0.625 0
3.875 0.625 0
3.875 0.5 0
4 0.5 0
3.875 0.625 0
4 0.625 0
3.75 0.625 0
3.875 0.625 0
3.75 0.75 0
3.875 0.75 0
3.875 0.625 0
4 0.625 0
3.875 0.75 0
4 0.75 0
3.5 0.75 0
3.625 0.75 0
3.5 0.875 0
3.625 0.875 0
3.625 0.75 0
3.75 0.75 0
3.625 0.875 0
3.75 0.875 0
3.5 0.875 0
3.625 0.875 0
3.5 1 0
3.625 1 0
3.625 0.875 0
3.75 0.875 0
3.625 1 0
3.75 1 0
3.75 0.75 0
3.875 0.75 0
3.75 0.875 0
3.875 0.875 0
3.875 0.75 0
4 0.75 0
3.875 0.875 0
4 0.875 0
3.75 0.875 0
3.875 0.875 0
3.75 1 0
3.875 1 0
3.875 0.875 0
4 0.875 0
3.875 1 0
4 1 0
2 0 0
2.125 0 0
2 0.125 0
2.125 0.125 0
2.125 0 0
2.25 0 0
2.125 0.125 0
2.25 0.125 0
2 0.125 0
2.125 0.125 0
2 0.25 0
2.125 0.25 0
2.125 0.125 0
2.25 0.125 0
2.125 0.25 0
2.25 0.25 0
2.25 0 0
2.375 0 0
2.25 0.125 0
2.375 0.125 0
2.375 0 0
2.5 0 0
2.375 0.125 0
2.5 0.125 0
2.25 0.125 0
2.375 0.125 0
2.25 0.25 0
2.375 0.25 0
2.375 0.125 0
2.5 0.125 0
2.375 0.25 0
2.5 0.25 0
2 0.25 0
2.125 0.25 0
2 0.375 0
2.125 0.375 0
2.125 0.25 0
2.25 0.25 0
2.125 0.375 0
2.25 0.375 0
2 0.375 0
2.125 0.375 0
2 0.5 0
2.125 0.5 0
2.125 0.375 0
2.25 0.375 0
2.125 0.5 0
2.25 0.5 0
2.25 0.25 0
2.375 0.25 0
2.25 0.375 0
2.375 0.375 0
2.375 0.25 0
[...]
POINT_DATA 1536
VECTORS displacements double
29.8481 -33.5205 0
30.3525 -29.9682 0
26.4311 -33.6729 0
26.8086 -30.1074 0
30.3525 -29.9682 0
30.8152 -26.2985 0
26.8086 -30.1074 0
27.1516 -26.4245 0
26.4311 -33.6729 0
26.8086 -30.1074 0
23.1423 -33.7778 0
23.3877 -30.2001 0
26.8086 -30.1074 0
27.1516 -26.4245 0
23.3877 -30.2001 0
23.6038 -26.5035 0
30.8152 -26.2985 0
31.2405 -22.521 0
27.1516 -26.4245 0
27.4594 -22.6342 0
31.2405 -22.521 0
31.6393 -18.639 0
27.4594 -22.6342 0
27.7306 -18.7414 0
27.1516 -26.4245 0
27.4594 -22.6342 0
23.6038 -26.5035 0
23.7855 -22.6974 0
27.4594 -22.6342 0
27.7306 -18.7414 0
23.7855 -22.6974 0
23.9244 -18.7853 0
23.1423 -33.7778 0
23.3877 -30.2001 0
19.9369 -33.834 0
20.0514 -30.2453 0
23.3877 -30.2001 0
23.6038 -26.5035 0
20.0514 -30.2453 0
20.1446 -26.5352 0
19.9369 -33.834 0
20.0514 -30.2453 0
16.7737 -33.8443 0
16.7614 -30.2474 0
20.0514 -30.2453 0
20.1446 -26.5352 0
16.7614 -30.2474 0
16.74 -26.5274 0
23.6038 -26.5035 0
23.7855 -22.6974 0
20.1446 -26.5352 0
20.2109 -22.7133 0
23.7855 -22.6974 0
23.9244 -18.7853 0
20.2109 -22.7133 0
20.2432 -18.7857 0
20.1446 -26.5352 0
20.2109 -22.7133 0
16.74 -26.5274 0
16.7062 -22.696 0
20.2109 -22.7133 0
20.2432 -18.7857 0
16.7062 -22.696 0
16.6584 -18.7652 0
31.6393 -18.639 0
32.0328 -14.6438 0
27.7306 -18.7414 0
27.9589 -14.7334 0
32.0328 -14.6438 0
32.4667 -10.467 0
27.9589 -14.7334 0
28.1213 -10.5697 0
27.7306 -18.7414 0
27.9589 -14.7334 0
23.9244 -18.7853 0
24.0068 -14.7575 0
27.9589 -14.7334 0
28.1213 -10.5697 0
24.0068 -14.7575 0
24.0119 -10.5657 0
32.4667 -10.467 0
32.9965 -6.02741 0
28.1213 -10.5697 0
28.1183 -5.9972 0
32.9965 -6.02741 0
33.4006 0 0
28.1183 -5.9972 0
28.2421 -1.16671 0
28.1213 -10.5697 0
28.1183 -5.9972 0
24.0119 -10.5657 0
24.003 -6.1842 0
28.1183 -5.9972 0
28.2421 -1.16671 0
24.003 -6.1842 0
24.1272 -1.96526 0
23.9244 -18.7853 0
24.0068 -14.7575 0
20.2432 -18.7857 0
20.2366 -14.7509 0
24.0068 -14.7575 0
24.0119 -10.5657 0
20.2366 -14.7509 0
20.2083 -10.6125 0
20.2432 -18.7857 0
20.2366 -14.7509 0
16.6584 -18.7652 0
16.6035 -14.7516 0
20.2366 -14.7509 0
20.2083 -10.6125 0
16.6035 -14.7516 0
16.5655 -10.6928 0
24.0119 -10.5657 0
24.003 -6.1842 0
20.2083 -10.6125 0
20.2214 -6.44984 0
24.003 -6.1842 0
24.1272 -1.96526 0
20.2214 -6.44984 0
20.3228 -2.50513 0
20.2083 -10.6125 0
20.2214 -6.44984 0
16.5655 -10.6928 0
16.5776 -6.67802 0
20.2214 -6.44984 0
20.3228 -2.50513 0
16.5776 -6.67802 0
16.6477 -2.865 0
16.7737 -33.8443 0
16.7614 -30.2474 0
13.6146 -33.8123 0
13.4804 -30.2122 0
16.7614 -30.2474 0
16.74 -26.5274 0
13.4804 -30.2122 0
13.353 -26.4888 0
13.6146 -33.8123 0
13.4804 -30.2122 0
10.4206 -33.7407 0
10.1687 -30.1438 0
13.4804 -30.2122 0
13.353 -26.4888 0
10.1687 -30.1438 0
9.94167 -26.4247 0
16.74 -26.5274 0
16.7062 -22.696 0
13.353 -26.4888 0
13.2326 -22.6569 0
16.7062 -22.696 0
16.6584 -18.7652 0
13.2326 -22.6569 0
13.1224 -18.7363 0
13.353 -26.4888 0
13.2326 -22.6569 0
9.94167 -26.4247 0
9.74284 -22.6011 0
13.2326 -22.6569 0
13.1224 -18.7363 0
9.74284 -22.6011 0
9.57755 -18.6979 0
10.4206 -33.7407 0
10.1687 -30.1438 0
7.14477 -33.6303 0
6.77693 -30.0434 0
10.1687 -30.1438 0
9.94167 -26.4247 0
6.77693 -30.0434 0
6.45243 -26.336 0
7.14477 -33.6303 0
6.77693 -30.0434 0
3.72509 -33.4794 0
3.23756 -29.9086 0
6.77693 -30.0434 0
6.45243 -26.336 0
3.23756 -29.9086 0
2.8116 -26.2199 0
9.94167 -26.4247 0
9.74284 -22.6011 0
6.45243 -26.336 0
6.17739 -22.5275 0
9.74284 -22.6011 0
9.57755 -18.6979 0
6.17739 -22.5275 0
5.95867 -18.6451 0
6.45243 -26.336 0
6.17739 -22.5275 0
2.8116 -26.2199 0
2.45769 -22.4336 0
6.17739 -22.5275 0
5.95867 -18.6451 0
2.45769 -22.4336 0
2.18745 -18.5771 0
16.6584 -18.7652 0
16.6035 -14.7516 0
13.1224 -18.7363 0
13.0326 -14.7565 0
16.6035 -14.7516 0
16.5655 -10.6928 0
13.0326 -14.7565 0
12.9799 -10.7658 0
13.1224 -18.7363 0
13.0326 -14.7565 0
9.57755 -18.6979 0
9.45349 -14.7512 0
13.0326 -14.7565 0
12.9799 -10.7658 0
9.45349 -14.7512 0
9.37879 -10.8099 0
16.5655 -10.6928 0
16.5776 -6.67802 0
12.9799 -10.7658 0
12.9776 -6.83897 0
16.5776 -6.67802 0
16.6477 -2.865 0
12.9776 -6.83897 0
13.0153 -3.07914 0
12.9799 -10.7658 0
12.9776 -6.83897 0
9.37879 -10.8099 0
9.35572 -6.93246 0
12.9776 -6.83897 0
13.0153 -3.07914 0
9.35572 -6.93246 0
9.36578 -3.1774 0
9.57755 -18.6979 0
9.45349 -14.7512 0
5.95867 -18.6451 0
5.80174 -14.7266 0
9.45349 -14.7512 0
9.37879 -10.8099 0
5.80174 -14.7266 0
5.70705 -10.8195 0
5.95867 -18.6451 0
5.80174 -14.7266 0
2.18745 -18.5771 0
2.00954 -14.6871 0
5.80174 -14.7266 0
5.70705 -10.8195 0
2.00954 -14.6871 0
1.92126 -10.8074 0
9.37879 -10.8099 0
9.35572 -6.93246 0
5.70705 -10.8195 0
5.66679 -6.97109 0
9.35572 -6.93246 0
9.36578 -3.1774 0
5.66679 -6.97109 0
5.6598 -3.20128 0
5.70705 -10.8195 0
5.66679 -6.97109 0
1.92126 -10.8074 0
1.89877 -6.97774 0
5.66679 -6.97109 0
5.6598 -3.20128 0
1.89877 -6.97774 0
1.89894 -3.20118 0
24.3619 -56.3794 0
25.1768 -54.1578 0
22.3145 -56.6213 0
22.9239 -54.3899 0
25.1768 -54.1578 0
25.957 -51.7355 0
22.9239 -54.3899 0
23.5085 -51.9576 0
22.3145 -56.6213 0
22.9239 -54.3899 0
20.4056 -56.7913 0
20.8087 -54.5536 0
22.9239 -54.3899 0
23.5085 -51.9576 0
20.8087 -54.5536 0
21.1969 -52.1147 0
25.957 -51.7355 0
26.7017 -49.1218 0
23.5085 -51.9576 0
24.0672 -49.3335 0
26.7017 -49.1218 0
27.4098 -46.3259 0
24.0672 -49.3335 0
24.5989 -46.5269 0
23.5085 -51.9576 0
24.0672 -49.3335 0
21.1969 -52.1147 0
21.5689 -49.4836 0
24.0672 -49.3335 0
24.5989 -46.5269 0
21.5689 -49.4836 0
21.9237 -46.6695 0
20.4056 -56.7913 0
20.8087 -54.5536 0
18.5875 -56.8891 0
18.7838 -54.6483 0
20.8087 -54.5536 0
21.1969 -52.1147 0
18.7838 -54.6483 0
18.9746 -52.2062 0
18.5875 -56.8891 0
18.7838 -54.6483 0
16.8082 -56.9158 0
16.7991 -54.6749 0
18.7838 -54.6483 0
18.9746 -52.2062 0
16.7991 -54.6749 0
16.7931 -52.233 0
21.1969 -52.1147 0
21.5689 -49.4836 0
18.9746 -52.2062 0
19.1587 -49.5716 0
21.5689 -49.4836 0
21.9237 -46.6695 0
19.1587 -49.5716 0
19.3351 -46.7533 0
18.9746 -52.2062 0
19.1587 -49.5716 0
16.7931 -52.233 0
16.7893 -49.5981 0
19.1587 -49.5716 0
19.3351 -46.7533 0
16.7893 -49.5981 0
16.7871 -46.7789 0
27.4098 -46.3259 0
28.0801 -43.3576 0
24.5989 -46.5269 0
25.1026 -43.5472 0
28.0801 -43.3576 0
28.7109 -40.2267 0
25.1026 -43.5472 0
25.5767 -40.4045 0
24.5989 -46.5269 0
25.1026 -43.5472 0
21.9237 -46.6695 0
22.2599 -43.6817 0
25.1026 -43.5472 0
25.5767 -40.4045 0
22.2599 -43.6817 0
22.5762 -40.53 0
28.7109 -40.2267 0
29.3007 -36.9439 0
25.5767 -40.4045 0
26.0201 -37.1093 0
29.3007 -36.9439 0
29.8481 -33.5205 0
26.0201 -37.1093 0
26.4311 -33.6729 0
25.5767 -40.4045 0
26.0201 -37.1093 0
22.5762 -40.53 0
22.871 -37.225 0
26.0201 -37.1093 0
26.4311 -33.6729 0
22.871 -37.225 0
23.1423 -33.7778 0
21.9237 -46.6695 0
22.2599 -43.6817 0
19.3351 -46.7533 0
19.5026 -43.7604 0
22.2599 -43.6817 0
22.5762 -40.53 0
19.5026 -43.7604 0
19.6599 -40.6026 0
19.3351 -46.7533 0
19.5026 -43.7604 0
16.7871 -46.7789 0
16.7856 -43.7842 0
19.5026 -43.7604 0
19.6599 -40.6026 0
16.7856 -43.7842 0
16.7837 -40.6235 0
22.5762 -40.53 0
22.871 -37.225 0
19.6599 -40.6026 0
19.8054 -37.2902 0
22.871 -37.225 0
23.1423 -33.7778 0
19.8054 -37.2902 0
19.9369 -33.834 0
19.6599 -40.6026 0
19.8054 -37.2902 0
16.7837 -40.6235 0
16.7804 -37.3067 0
19.8054 -37.2902 0
19.9369 -33.834 0
16.7804 -37.3067 0
16.7737 -33.8443 0
16.8082 -56.9158 0
16.7991 -54.6749 0
15.0202 -56.8734 0
14.8086 -54.6352 0
16.7991 -54.6749 0
16.7931 -52.233 0
14.8086 -54.6352 0
14.6079 -52.1963 0
15.0202 -56.8734 0
14.8086 -54.6352 0
13.1796 -56.764 0
12.7692 -54.5311 0
14.8086 -54.6352 0
14.6079 -52.1963 0
12.7692 -54.5311 0
12.3767 -52.0976 0
16.7931 -52.233 0
16.7893 -49.5981 0
14.6079 -52.1963 0
14.4177 -49.5642 0
16.7893 -49.5981 0
16.7871 -46.7789 0
14.4177 -49.5642 0
14.2378 -46.7472 0
14.6079 -52.1963 0
14.4177 -49.5642 0
12.3767 -52.0976 0
12.0022 -49.471 0
14.4177 -49.5642 0
14.2378 -46.7472 0
12.0022 -49.471 0
11.6463 -46.6591 0
13.1796 -56.764 0
12.7692 -54.5311 0
11.2464 -56.5894 0
10.6397 -54.3637 0
12.7692 -54.5311 0
12.3767 -52.0976 0
10.6397 -54.3637 0
10.057 -51.9378 0
11.2464 -56.5894 0
10.6397 -54.3637 0
9.191 -56.3492 0
8.38478 -54.1324 0
10.6397 -54.3637 0
10.057 -51.9378 0
8.38478 -54.1324 0
7.60893 -51.7159 0
12.3767 -52.0976 0
12.0022 -49.471 0
10.057 -51.9378 0
9.49955 -49.3188 0
12.0022 -49.471 0
11.6463 -46.6591 0
9.49955 -49.3188 0
8.96852 -46.5148 0
10.057 -51.9378 0
9.49955 -49.3188 0
7.60893 -51.7159 0
6.86569 -49.1069 0
9.49955 -49.3188 0
8.96852 -46.5148 0
6.86569 -49.1069 0
6.15727 -46.3135 0
16.7871 -46.7789 0
16.7856 -43.7842 0
14.2378 -46.7472 0
14.0679 -43.754 0
16.7856 -43.7842 0
16.7837 -40.6235 0
14.0679 -43.754 0
13.9077 -40.5939 0
14.2378 -46.7472 0
14.0679 -43.754 0
11.6463 -46.6591 0
11.3093 -43.6708 0
14.0679 -43.754 0
13.9077 -40.5939 0
11.3093 -43.6708 0
10.9921 -40.5151 0
16.7837 -40.6235 0
16.7804 -37.3067 0
13.9077 -40.5939 0
13.7568 -37.2766 0
16.7804 -37.3067 0
16.7737 -33.8443 0
13.7568 -37.2766 0
13.6146 -33.8123 0
13.9077 -40.5939 0
13.7568 -37.2766 0
10.9921 -40.5151 0
10.6955 -37.2016 0
13.7568 -37.2766 0
13.6146 -33.8123 0
10.6955 -37.2016 0
10.4206 -33.7407 0
11.6463 -46.6591 0
11.3093 -43.6708 0
8.96852 -46.5148 0
8.46549 -43.5345 0
11.3093 -43.6708 0
10.9921 -40.5151 0
8.46549 -43.5345 0
7.99228 -40.3871 0
8.96852 -46.5148 0
8.46549 -43.5345 0
6.15727 -46.3135 0
5.48598 -43.3445 0
8.46549 -43.5345 0
7.99228 -40.3871 0
5.48598 -43.3445 0
4.85447 -40.209 0
10.9921 -40.5151 0
10.6955 -37.2016 0
7.99228 -40.3871 0
7.5511 -37.0822 0
10.6955 -37.2016 0
10.4206 -33.7407 0
7.5511 -37.0822 0
7.14477 -33.6303 0
7.99228 -40.3871 0
7.5511 -37.0822 0
4.85447 -40.209 0
4.26605 -36.917 0
7.5511 -37.0822 0
7.14477 -33.6303 0
4.26605 -36.917 0
3.72509 -33.4794 0
16.7003 -65.4566 0
17.7398 -65.3012 0
16.7003 -65.7595 0
17.4512 -65.6024 0
17.7398 -65.3012 0
18.7687 -64.8388 0
17.4512 -65.6024 0
18.1961 -65.135 0
16.7003 -65.7595 0
17.4512 -65.6024 0
16.7003 -65.9925 0
17.204 -65.8322 0
17.4512 -65.6024 0
18.1961 -65.135 0
17.204 -65.8322 0
17.7008 -65.3568 0
18.7687 -64.8388 0
19.7776 -64.0799 0
18.1961 -65.135 0
18.9294 -64.3687 0
19.7776 -64.0799 0
20.7597 -63.0393 0
18.9294 -64.3687 0
19.647 -63.3195 0
18.1961 -65.135 0
18.9294 -64.3687 0
17.7008 -65.3568 0
18.1857 -64.5801 0
18.9294 -64.3687 0
19.647 -63.3195 0
18.1857 -64.5801 0
18.6568 -63.5202 0
16.7003 -65.9925 0
17.204 -65.8322 0
16.7003 -66.1877 0
16.984 -66.0205 0
17.204 -65.8322 0
17.7008 -65.3568 0
16.984 -66.0205 0
17.2557 -65.5272 0
16.7003 -66.1877 0
16.984 -66.0205 0
16.7003 -66.3649 0
16.7773 -66.1834 0
16.984 -66.0205 0
17.2557 -65.5272 0
16.7773 -66.1834 0
16.8332 -65.6561 0
17.7008 -65.3568 0
18.1857 -64.5801 0
17.2557 -65.5272 0
17.5092 -64.7291 0
18.1857 -64.5801 0
18.6568 -63.5202 0
17.5092 -64.7291 0
17.7448 -63.6503 0
17.2557 -65.5272 0
17.5092 -64.7291 0
16.8332 -65.6561 0
16.8599 -64.8203 0
17.5092 -64.7291 0
17.7448 -63.6503 0
16.8599 -64.8203 0
16.8627 -63.7118 0
20.7597 -63.0393 0
21.7108 -61.7337 0
19.647 -63.3195 0
20.3461 -62.0045 0
21.7108 -61.7337 0
22.6287 -60.1791 0
20.3461 -62.0045 0
21.0246 -60.4403 0
19.647 -63.3195 0
20.3461 -62.0045 0
18.6568 -63.5202 0
19.114 -62.1959 0
20.3461 -62.0045 0
21.0246 -60.4403 0
19.114 -62.1959 0
19.5577 -60.6237 0
22.6287 -60.1791 0
23.5124 -58.3902 0
21.0246 -60.4403 0
21.6811 -58.6417 0
23.5124 -58.3902 0
24.3619 -56.3794 0
21.6811 -58.6417 0
22.3145 -56.6213 0
21.0246 -60.4403 0
21.6811 -58.6417 0
19.5577 -60.6237 0
19.9883 -58.8182 0
21.6811 -58.6417 0
22.3145 -56.6213 0
19.9883 -58.8182 0
20.4056 -56.7913 0
18.6568 -63.5202 0
19.114 -62.1959 0
17.7448 -63.6503 0
17.9669 -62.3121 0
19.114 -62.1959 0
19.5577 -60.6237 0
17.9669 -62.3121 0
18.1796 -60.731 0
17.7448 -63.6503 0
17.9669 -62.3121 0
16.8627 -63.7118 0
16.8518 -62.3547 0
17.9669 -62.3121 0
18.1796 -60.731 0
16.8518 -62.3547 0
16.836 -60.7635 0
19.5577 -60.6237 0
19.9883 -58.8182 0
18.1796 -60.731 0
18.3861 -58.9198 0
19.9883 -58.8182 0
20.4056 -56.7913 0
18.3861 -58.9198 0
18.5875 -56.8891 0
18.1796 -60.731 0
18.3861 -58.9198 0
16.836 -60.7635 0
16.8207 -58.9479 0
18.3861 -58.9198 0
18.5875 -56.8891 0
16.8207 -58.9479 0
16.8082 -56.9158 0
16.7003 -66.3649 0
16.7773 -66.1834 0
16.7003 -66.5326 0
16.5713 -66.3241 0
16.7773 -66.1834 0
16.8332 -65.6561 0
16.5713 -66.3241 0
16.4064 -65.7376 0
16.7003 -66.5326 0
16.5713 -66.3241 0
16.7003 -66.6916 0
16.3481 -66.4329 0
16.5713 -66.3241 0
16.4064 -65.7376 0
16.3481 -66.4329 0
15.9446 -65.7483 0
16.8332 -65.6561 0
16.8599 -64.8203 0
16.4064 -65.7376 0
16.1991 -64.8451 0
16.8599 -64.8203 0
16.8627 -63.7118 0
16.1991 -64.8451 0
15.9634 -63.6981 0
16.4064 -65.7376 0
16.1991 -64.8451 0
15.9446 -65.7483 0
15.4804 -64.7794 0
16.1991 -64.8451 0
15.9634 -63.6981 0
15.4804 -64.7794 0
14.9943 -63.5968 0
16.7003 -66.6916 0
16.3481 -66.4329 0
16.7003 -66.8491 0
16.0971 -66.477 0
16.3481 -66.4329 0
15.9446 -65.7483 0
16.0971 -66.477 0
15.3793 -65.6264 0
16.7003 -66.8491 0
16.0971 -66.477 0
16.7003 -66.9109 0
15.5629 -66.3652 0
16.0971 -66.477 0
15.3793 -65.6264 0
15.5629 -66.3652 0
14.5371 -65.3418 0
15.9446 -65.7483 0
15.4804 -64.7794 0
15.3793 -65.6264 0
14.6246 -64.5973 0
15.4804 -64.7794 0
14.9943 -63.5968 0
14.6246 -64.5973 0
13.9007 -63.4053 0
15.3793 -65.6264 0
14.6246 -64.5973 0
14.5371 -65.3418 0
13.591 -64.3246 0
14.6246 -64.5973 0
13.9007 -63.4053 0
13.591 -64.3246 0
12.6699 -63.1354 0
16.8627 -63.7118 0
16.8518 -62.3547 0
15.9634 -63.6981 0
15.7181 -62.3208 0
16.8518 -62.3547 0
16.836 -60.7635 0
15.7181 -62.3208 0
15.4762 -60.7214 0
15.9634 -63.6981 0
15.7181 -62.3208 0
14.9943 -63.5968 0
14.5163 -62.2072 0
15.7181 -62.3208 0
15.4762 -60.7214 0
14.5163 -62.2072 0
14.0534 -60.6053 0
16.836 -60.7635 0
16.8207 -58.9479 0
15.4762 -60.7214 0
15.2428 -58.904 0
16.8207 -58.9479 0
16.8082 -56.9158 0
15.2428 -58.904 0
15.0202 -56.8734 0
15.4762 -60.7214 0
15.2428 -58.904 0
14.0534 -60.6053 0
13.6077 -58.7902 0
15.2428 -58.904 0
15.0202 -56.8734 0
13.6077 -58.7902 0
13.1796 -56.764 0
14.9943 -63.5968 0
14.5163 -62.2072 0
13.9007 -63.4053 0
13.2029 -62.0156 0
14.5163 -62.2072 0
14.0534 -60.6053 0
13.2029 -62.0156 0
12.5284 -60.418 0
13.9007 -63.4053 0
13.2029 -62.0156 0
12.6699 -63.1354 0
11.7673 -61.7524 0
13.2029 -62.0156 0
12.5284 -60.418 0
11.7673 -61.7524 0
10.8849 -60.1618 0
14.0534 -60.6053 0
13.6077 -58.7902 0
12.5284 -60.418 0
11.8762 -58.6089 0
13.6077 -58.7902 0
13.1796 -56.764 0
11.8762 -58.6089 0
11.2464 -56.5894 0
12.5284 -60.418 0
11.8762 -58.6089 0
10.8849 -60.1618 0
10.0252 -58.3604 0
11.8762 -58.6089 0
11.2464 -56.5894 0
10.0252 -58.3604 0
9.191 -56.3492 0
9.03876 -56.3794 0
9.88818 -58.3902 0
11.0862 -56.6213 0
11.7196 -58.6417 0
9.88818 -58.3902 0
10.7719 -60.1791 0
11.7196 -58.6417 0
12.376 -60.4403 0
11.0862 -56.6213 0
11.7196 -58.6417 0
12.9951 -56.7913 0
13.4123 -58.8182 0
11.7196 -58.6417 0
12.376 -60.4403 0
13.4123 -58.8182 0
13.8429 -60.6237 0
10.7719 -60.1791 0
11.6898 -61.7337 0
12.376 -60.4403 0
13.0545 -62.0045 0
11.6898 -61.7337 0
12.6409 -63.0393 0
13.0545 -62.0045 0
13.7536 -63.3195 0
12.376 -60.4403 0
13.0545 -62.0045 0
13.8429 -60.6237 0
14.2866 -62.1959 0
13.0545 -62.0045 0
13.7536 -63.3195 0
14.2866 -62.1959 0
14.7438 -63.5202 0
12.9951 -56.7913 0
13.4123 -58.8182 0
14.8132 -56.8891 0
15.0146 -58.9198 0
13.4123 -58.8182 0
13.8429 -60.6237 0
15.0146 -58.9198 0
15.221 -60.731 0
14.8132 -56.8891 0
15.0146 -58.9198 0
16.5924 -56.9158 0
16.58 -58.9479 0
15.0146 -58.9198 0
15.221 -60.731 0
16.58 -58.9479 0
16.5647 -60.7635 0
13.8429 -60.6237 0
14.2866 -62.1959 0
15.221 -60.731 0
15.4338 -62.3121 0
14.2866 -62.1959 0
14.7438 -63.5202 0
15.4338 -62.3121 0
15.6558 -63.6503 0
15.221 -60.731 0
15.4338 -62.3121 0
16.5647 -60.7635 0
16.5488 -62.3547 0
15.4338 -62.3121 0
15.6558 -63.6503 0
16.5488 -62.3547 0
16.5379 -63.7118 0
12.6409 -63.0393 0
13.623 -64.0799 0
13.7536 -63.3195 0
14.4713 -64.3687 0
13.623 -64.0799 0
14.632 -64.8388 0
14.4713 -64.3687 0
15.2046 -65.135 0
13.7536 -63.3195 0
14.4713 -64.3687 0
14.7438 -63.5202 0
15.2149 -64.5801 0
14.4713 -64.3687 0
15.2046 -65.135 0
15.2149 -64.5801 0
15.6998 -65.3568 0
14.632 -64.8388 0
15.6608 -65.3012 0
15.2046 -65.135 0
15.9494 -65.6024 0
15.6608 -65.3012 0
16.7003 -65.4566 0
15.9494 -65.6024 0
16.7003 -65.7595 0
15.2046 -65.135 0
15.9494 -65.6024 0
15.6998 -65.3568 0
16.1966 -65.8322 0
15.9494 -65.6024 0
16.7003 -65.7595 0
16.1966 -65.8322 0
16.7003 -65.9925 0
14.7438 -63.5202 0
15.2149 -64.5801 0
15.6558 -63.6503 0
15.8915 -64.7291 0
15.2149 -64.5801 0
15.6998 -65.3568 0
15.8915 -64.7291 0
16.145 -65.5272 0
15.6558 -63.6503 0
15.8915 -64.7291 0
16.5379 -63.7118 0
16.5407 -64.8203 0
15.8915 -64.7291 0
16.145 -65.5272 0
16.5407 -64.8203 0
16.5674 -65.6561 0
15.6998 -65.3568 0
16.1966 -65.8322 0
16.145 -65.5272 0
16.4167 -66.0205 0
16.1966 -65.8322 0
16.7003 -65.9925 0
16.4167 -66.0205 0
16.7003 -66.1877 0
16.145 -65.5272 0
16.4167 -66.0205 0
16.5674 -65.6561 0
16.6233 -66.1834 0
16.4167 -66.0205 0
16.7003 -66.1877 0
16.6233 -66.1834 0
16.7003 -66.3649 0
16.5924 -56.9158 0
16.58 -58.9479 0
18.3804 -56.8734 0
18.1578 -58.904 0
16.58 -58.9479 0
16.5647 -60.7635 0
18.1578 -58.904 0
17.9245 -60.7214 0
18.3804 -56.8734 0
18.1578 -58.904 0
20.2211 -56.764 0
19.793 -58.7902 0
18.1578 -58.904 0
17.9245 -60.7214 0
19.793 -58.7902 0
19.3473 -60.6053 0
16.5647 -60.7635 0
16.5488 -62.3547 0
17.9245 -60.7214 0
17.6825 -62.3208 0
16.5488 -62.3547 0
16.5379 -63.7118 0
17.6825 -62.3208 0
17.4372 -63.6981 0
17.9245 -60.7214 0
17.6825 -62.3208 0
19.3473 -60.6053 0
18.8844 -62.2072 0
17.6825 -62.3208 0
17.4372 -63.6981 0
18.8844 -62.2072 0
18.4063 -63.5968 0
20.2211 -56.764 0
19.793 -58.7902 0
22.1542 -56.5894 0
21.5245 -58.6089 0
19.793 -58.7902 0
19.3473 -60.6053 0
21.5245 -58.6089 0
20.8723 -60.418 0
22.1542 -56.5894 0
21.5245 -58.6089 0
24.2096 -56.3492 0
23.3754 -58.3604 0
21.5245 -58.6089 0
20.8723 -60.418 0
23.3754 -58.3604 0
22.5157 -60.1618 0
19.3473 -60.6053 0
18.8844 -62.2072 0
20.8723 -60.418 0
20.1977 -62.0156 0
18.8844 -62.2072 0
18.4063 -63.5968 0
20.1977 -62.0156 0
19.4999 -63.4053 0
20.8723 -60.418 0
20.1977 -62.0156 0
22.5157 -60.1618 0
21.6334 -61.7524 0
20.1977 -62.0156 0
19.4999 -63.4053 0
21.6334 -61.7524 0
20.7308 -63.1354 0
16.5379 -63.7118 0
16.5407 -64.8203 0
17.4372 -63.6981 0
17.2015 -64.8451 0
16.5407 -64.8203 0
16.5674 -65.6561 0
17.2015 -64.8451 0
16.9943 -65.7376 0
17.4372 -63.6981 0
17.2015 -64.8451 0
18.4063 -63.5968 0
17.9202 -64.7794 0
17.2015 -64.8451 0
16.9943 -65.7376 0
17.9202 -64.7794 0
17.456 -65.7483 0
16.5674 -65.6561 0
16.6233 -66.1834 0
16.9943 -65.7376 0
16.8293 -66.3241 0
16.6233 -66.1834 0
16.7003 -66.3649 0
16.8293 -66.3241 0
16.7003 -66.5326 0
16.9943 -65.7376 0
16.8293 -66.3241 0
17.456 -65.7483 0
17.0526 -66.4329 0
16.8293 -66.3241 0
16.7003 -66.5326 0
17.0526 -66.4329 0
16.7003 -66.6916 0
18.4063 -63.5968 0
17.9202 -64.7794 0
19.4999 -63.4053 0
18.776 -64.5973 0
17.9202 -64.7794 0
17.456 -65.7483 0
18.776 -64.5973 0
18.0213 -65.6264 0
19.4999 -63.4053 0
18.776 -64.5973 0
20.7308 -63.1354 0
19.8096 -64.3246 0
18.776 -64.5973 0
18.0213 -65.6264 0
19.8096 -64.3246 0
18.8635 -65.3418 0
17.456 -65.7483 0
17.0526 -66.4329 0
18.0213 -65.6264 0
17.3035 -66.477 0
17.0526 -66.4329 0
16.7003 -66.6916 0
17.3035 -66.477 0
16.7003 -66.8491 0
18.0213 -65.6264 0
17.3035 -66.477 0
18.8635 -65.3418 0
17.8377 -66.3652 0
17.3035 -66.477 0
16.7003 -66.8491 0
17.8377 -66.3652 0
16.7003 -66.9109 0
3.55254 -33.5205 0
4.09991 -36.9439 0
6.96951 -33.6729 0
7.38056 -37.1093 0
4.09991 -36.9439 0
4.68968 -40.2267 0
7.38056 -37.1093 0
7.82388 -40.4045 0
6.96951 -33.6729 0
7.38056 -37.1093 0
10.2583 -33.7778 0
10.5296 -37.225 0
7.38056 -37.1093 0
7.82388 -40.4045 0
10.5296 -37.225 0
10.8244 -40.53 0
4.68968 -40.2267 0
5.32052 -43.3576 0
7.82388 -40.4045 0
8.29806 -43.5472 0
5.32052 -43.3576 0
5.9908 -46.3259 0
8.29806 -43.5472 0
8.8017 -46.5269 0
7.82388 -40.4045 0
8.29806 -43.5472 0
10.8244 -40.53 0
11.1407 -43.6817 0
8.29806 -43.5472 0
8.8017 -46.5269 0
11.1407 -43.6817 0
11.477 -46.6695 0
10.2583 -33.7778 0
10.5296 -37.225 0
13.4637 -33.834 0
13.5952 -37.2902 0
10.5296 -37.225 0
10.8244 -40.53 0