# vtk DataFile Version 3.0
#This file was generated by the deal.II library on 2020/9/2 at 8:42:23
ASCII
DATASET UNSTRUCTURED_GRID

POINTS 1536 double
5 0 0
5.125 0 0
5 0.125 0
5.125 0.125 0
5.125 0 0
5.25 0 0
5.125 0.125 0
5.25 0.125 0
5 0.125 0
5.125 0.125 0
5 0.25 0
5.125 0.25 0
5.125 0.125 0
5.25 0.125 0
5.125 0.25 0
5.25 0.25 0
5.25 0 0
5.375 0 0
5.25 0.125 0
5.375 0.125 0
5.375 0 0
5.5 0 0
5.375 0.125 0
5.5 0.125 0
5.25 0.125 0
5.375 0.125 0
5.25 0.25 0
5.375 0.25 0
5.375 0.125 0
5.5 0.125 0
5.375 0.25 0
5.5 0.25 0
5 0.25 0
5.125 0.25 0
5 0.375 0
5.125 0.375 0
5.125 0.25 0
5.25 0.25 0
5.125 0.375 0
5.25 0.375 0
5 0.375 0
5.125 0.375 0
5 0.5 0
5.125 0.5 0
5.125 0.375 0
5.25 0.375 0
5.125 0.5 0
5.25 0.5 0
5.25 0.25 0
5.375 0.25 0
5.25 0.375 0
5.375 0.375 0
5.375 0.25 0
5.5 0.25 0
5.375 0.375 0
5.5 0.375 0
5.25 0.375 0
5.375 0.375 0
5.25 0.5 0
5.375 0.5 0
5.375 0.375 0
5.5 0.375 0
5.375 0.5 0
5.5 0.5 0
5.5 0 0
5.625 0 0
5.5 0.125 0
5.625 0.125 0
5.625 0 0
5.75 0 0
5.625 0.125 0
5.75 0.125 0
5.5 0.125 0
5.625 0.125 0
5.5 0.25 0
5.625 0.25 0
5.625 0.125 0
5.75 0.125 0
5.625 0.25 0
5.75 0.25 0
5.75 0 0
5.875 0 0
5.75 0.125 0
5.875 0.125 0
5.875 0 0
6 0 0
5.875 0.125 0
6 0.125 0
5.75 0.125 0
5.875 0.125 0
5.75 0.25 0
5.875 0.25 0
5.875 0.125 0
6 0.125 0
5.875 0.25 0
6 0.25 0
5.5 0.25 0
5.625 0.25 0
5.5 0.375 0
5.625 0.375 0
5.625 0.25 0
5.75 0.25 0
5.625 0.375 0
5.75 0.375 0
5.5 0.375 0
5.625 0.375 0
5.5 0.5 0
5.625 0.5 0
5.625 0.375 0
5.75 0.375 0
5.625 0.5 0
5.75 0.5 0
5.75 0.25 0
5.875 0.25 0
5.75 0.375 0
5.875 0.375 0
5.875 0.25 0
6 0.25 0
5.875 0.375 0
6 0.375 0
5.75 0.375 0
5.875 0.375 0
5.75 0.5 0
5.875 0.5 0
5.875 0.375 0
6 0.375 0
5.875 0.5 0
6 0.5 0
5 0.5 0
5.125 0.5 0
5 0.625 0
5.125 0.625 0
5.125 0.5 0
5.25 0.5 0
5.125 0.625 0
5.25 0.625 0
5 0.625 0
5.125 0.625 0
5 0.75 0
5.125 0.75 0
5.125 0.625 0
5.25 0.625 0
5.125 0.75 0
5.25 0.75 0
5.25 0.5 0
5.375 0.5 0
5.25 0.625 0
5.375 0.625 0
5.375 0.5 0
5.5 0.5 0
5.375 0.625 0
5.5 0.625 0
5.25 0.625 0
5.375 0.625 0
5.25 0.75 0
5.375 0.75 0
5.375 0.625 0
5.5 0.625 0
5.375 0.75 0
5.5 0.75 0
5 0.75 0
5.125 0.75 0
5 0.875 0
5.125 0.875 0
5.125 0.75 0
5.25 0.75 0
5.125 0.875 0
5.25 0.875 0
5 0.875 0
5.125 0.875 0
5 1 0
5.125 1 0
5.125 0.875 0
5.25 0.875 0
5.125 1 0
5.25 1 0
5.25 0.75 0
5.375 0.75 0
5.25 0.875 0
5.375 0.875 0
5.375 0.75 0
5.5 0.75 0
5.375 0.875 0
5.5 0.875 0
5.25 0.875 0
5.375 0.875 0
5.25 1 0
5.375 1 0
5.375 0.875 0
5.5 0.875 0
5.375 1 0
5.5 1 0
5.5 0.5 0
5.625 0.5 0
5.5 0.625 0
5.625 0.625 0
5.625 0.5 0
5.75 0.5 0
5.625 0.625 0
5.75 0.625 0
5.5 0.625 0
5.625 0.625 0
5.5 0.75 0
5.625 0.75 0
5.625 0.625 0
5.75 0.625 0
5.625 0.75 0
5.75 0.75 0
5.75 0.5 0
5.875 0.5 0
5.75 0.625 0
5.875 0.625 0
5.875 0.5 0
6 0.5 0
5.875 0.625 0
6 0.625 0
5.75 0.625 0
5.875 0.625 0
5.75 0.75 0
5.875 0.75 0
5.875 0.625 0
6 0.625 0
5.875 0.75 0
6 0.75 0
5.5 0.75 0
5.625 0.75 0
5.5 0.875 0
5.625 0.875 0
5.625 0.75 0
5.75 0.75 0
5.625 0.875 0
5.75 0.875 0
5.5 0.875 0
5.625 0.875 0
5.5 1 0
5.625 1 0
5.625 0.875 0
5.75 0.875 0
5.625 1 0
5.75 1 0
5.75 0.75 0
5.875 0.75 0
5.75 0.875 0
5.875 0.875 0
5.875 0.75 0
6 0.75 0
5.875 0.875 0
6 0.875 0
5.75 0.875 0
5.875 0.875 0
5.75 1 0
5.875 1 0
5.875 0.875 0
6 0.875 0
5.875 1 0
6 1 0
4 0 0
4.125 0 0
4 0.125 0
4.125 0.125 0
4.125 0 0
4.25 0 0
4.125 0.125 0
4.25 0.125 0
4 0.125 0
4.125 0.125 0
4 0.25 0
4.125 0.25 0
4.125 0.125 0
4.25 0.125 0
4.125 0.25 0
4.25 0.25 0
4.25 0 0
4.375 0 0
4.25 0.125 0
4.375 0.125 0
4.375 0 0
4.5 0 0
4.375 0.125 0
4.5 0.125 0
4.25 0.125 0
4.375 0.125 0
4.25 0.25 0
4.375 0.25 0
4.375 0.125 0
4.5 0.125 0
4.375 0.25 0
4.5 0.25 0
4 0.25 0
4.125 0.25 0
4 0.375 0
4.125 0.375 0
4.125 0.25 0
4.25 0.25 0
4.125 0.375 0
4.25 0.375 0
4 0.375 0
4.125 0.375 0
4 0.5 0
4.125 0.5 0
4.125 0.375 0
4.25 0.375 0
4.125 0.5 0
4.25 0.5 0
4.25 0.25 0
4.375 0.25 0
4.25 0.375 0
4.375 0.375 0
4.375 0.25 0
4.5 0.25 0
4.375 0.375 0
4.5 0.375 0
4.25 0.375 0
4.375 0.375 0
4.25 0.5 0
4.375 0.5 0
4.375 0.375 0
4.5 0.375 0
4.375 0.5 0
4.5 0.5 0
4.5 0 0
4.625 0 0
4.5 0.125 0
4.625 0.125 0
4.625 0 0
4.75 0 0
4.625 0.125 0
4.75 0.125 0
4.5 0.125 0
4.625 0.125 0
4.5 0.25 0
4.625 0.25 0
4.625 0.125 0
4.75 0.125 0
4.625 0.25 0
4.75 0.25 0
4.75 0 0
4.875 0 0
4.75 0.125 0
4.875 0.125 0
4.875 0 0
5 0 0
4.875 0.125 0
5 0.125 0
4.75 0.125 0
4.875 0.125 0
4.75 0.25 0
4.875 0.25 0
4.875 0.125 0
5 0.125 0
4.875 0.25 0
5 0.25 0
4.5 0.25 0
4.625 0.25 0
4.5 0.375 0
4.625 0.375 0
4.625 0.25 0
4.75 0.25 0
4.625 0.375 0
4.75 0.375 0
4.5 0.375 0
4.625 0.375 0
4.5 0.5 0
4.625 0.5 0
4.625 0.375 0
4.75 0.375 0
4.625 0.5 0
4.75 0.5 0
4.75 0.25 0
4.875 0.25 0
4.75 0.375 0
4.875 0.375 0
4.875 0.25 0
5 0.25 0
4.875 0.375 0
5 0.375 0
4.75 0.375 0
4.875 0.375 0
4.75 0.5 0
4.875 0.5 0
4.875 0.375 0
5 0.375 0
4.875 0.5 0
5 0.5 0
4 0.5 0
4.125 0.5 0
4 0.625 0
4.125 0.625 0
4.125 0.5 0
4.25 0.5 0
4.125 0.625 0
4.25 0.625 0
4 0.625 0
4.125 0.625 0
4 0.75 0
4.125 0.75 0
4.125 0.625 0
4.25 0.625 0
4.125 0.75 0
4.25 0.75 0
4.25 0.5 0
4.375 0.5 0
4.25 0.625 0
4.375 0.625 0
4.375 0.5 0
4.5 0.5 0
4.375 0.625 0
4.5 0.625 0
4.25 0.625 0
4.375 0.625 0
4.25 0.75 0
4.375 0.75 0
4.375 0.625 0
4.5 0.625 0
4.375 0.75 0
4.5 0.75 0
4 0.75 0
4.125 0.75 0
4 0.875 0
4.125 0.875 0
4.125 0.75 0
4.25 0.75 0
4.125 0.875 0
4.25 0.875 0
4 0.875 0
4.125 0.875 0
4 1 0
4.125 1 0
4.125 0.875 0
4.25 0.875 0
4.125 1 0
4.25 1 0
4.25 0.75 0
4.375 0.75 0
4.25 0.875 0
4.375 0.875 0
4.375 0.75 0
4.5 0.75 0
4.375 0.875 0
4.5 0.875 0
4.25 0.875 0
4.375 0.875 0
4.25 1 0
4.375 1 0
4.375 0.875 0
4.5 0.875 0
4.375 1 0
4.5 1 0
4.5 0.5 0
4.625 0.5 0
4.5 0.625 0
4.625 0.625 0
4.625 0.5 0
4.75 0.5 0
4.625 0.625 0
4.75 0.625 0
4.5 0.625 0
4.625 0.625 0
4.5 0.75 0
4.625 0.75 0
4.625 0.625 0
4.75 0.625 0
4.625 0.75 0
4.75 0.75 0
4.75 0.5 0
4.875 0.5 0
4.75 0.625 0
4.875 0.625 0
4.875 0.5 0
5 0.5 0
4.875 0.625 0
5 0.625 0
4.75 0.625 0
4.875 0.625 0
4.75 0.75 0
4.875 0.75 0
4.875 0.625 0
5 0.625 0
4.875 0.75 0
5 0.75 0
4.5 0.75 0
4.625 0.75 0
4.5 0.875 0
4.625 0.875 0
4.625 0.75 0
4.75 0.75 0
4.625 0.875 0
4.75 0.875 0
4.5 0.875 0
4.625 0.875 0
4.5 1 0
4.625 1 0
4.625 0.875 0
4.75 0.875 0
4.625 1 0
4.75 1 0
4.75 0.75 0
4.875 0.75 0
4.75 0.875 0
4.875 0.875 0
4.875 0.75 0
5 0.75 0
4.875 0.875 0
5 0.875 0
4.75 0.875 0
4.875 0.875 0
4.75 1 0
4.875 1 0
4.875 0.875 0
5 0.875 0
4.875 1 0
5 1 0
3 0 0
3.125 0 0
3 0.125 0
3.125 0.125 0
3.125 0 0
3.25 0 0
3.125 0.125 0
3.25 0.125 0
3 0.125 0
3.125 0.125 0
3 0.25 0
3.125 0.25 0
3.125 0.125 0
3.25 0.125 0
3.125 0.25 0
3.25 0.25 0
3.25 0 0
3.375 0 0
3.25 0.125 0
3.375 0.125 0
3.375 0 0
3.5 0 0
3.375 0.125 0
3.5 0.125 0
3.25 0.125 0
3.375 0.125 0
3.25 0.25 0
3.375 0.25 0
3.375 0.125 0
3.5 0.125 0
3.375 0.25 0
3.5 0.25 0
3 0.25 0
3.125 0.25 0
3 0.375 0
3.125 0.375 0
3.125 0.25 0
3.25 0.25 0
3.125 0.375 0
3.25 0.375 0
3 0.375 0
3.125 0.375 0
3 0.5 0
3.125 0.5 0
3.125 0.375 0
3.25 0.375 0
3.125 0.5 0
3.25 0.5 0
3.25 0.25 0
3.375 0.25 0
3.25 0.375 0
3.375 0.375 0
3.375 0.25 0
3.5 0.25 0
3.375 0.375 0
3.5 0.375 0
3.25 0.375 0
3.375 0.375 0
3.25 0.5 0
3.375 0.5 0
3.375 0.375 0
3.5 0.375 0
3.375 0.5 0
3.5 0.5 0
3.5 0 0
3.625 0 0
3.5 0.125 0
3.625 0.125 0
3.625 0 0
3.75 0 0
3.625 0.125 0
3.75 0.125 0
3.5 0.125 0
3.625 0.125 0
3.5 0.25 0
3.625 0.25 0
3.625 0.125 0
3.75 0.125 0
3.625 0.25 0
3.75 0.25 0
3.75 0 0
3.875 0 0
3.75 0.125 0
3.875 0.125 0
3.875 0 0
4 0 0
3.875 0.125 0
4 0.125 0
3.75 0.125 0
3.875 0.125 0
3.75 0.25 0
3.875 0.25 0
3.875 0.125 0
4 0.125 0
3.875 0.25 0
4 0.25 0
3.5 0.25 0
3.625 0.25 0
3.5 0.375 0
3.625 0.375 0
3.625 0.25 0
3.75 0.25 0
3.625 0.375 0
3.75 0.375 0
3.5 0.375 0
3.625 0.375 0
3.5 0.5 0
3.625 0.5 0
3.625 0.375 0
3.75 0.375 0
3.625 0.5 0
3.75 0.5 0
3.75 0.25 0
3.875 0.25 0
3.75 0.375 0
3.875 0.375 0
3.875 0.25 0
4 0.25 0
3.875 0.375 0
4 0.375 0
3.75 0.375 0
3.875 0.375 0
3.75 0.5 0
3.875 0.5 0
3.875 0.375 0
4 0.375 0
3.875 0.5 0
4 0.5 0
3 0.5 0
3.125 0.5 0
3 0.625 0
3.125 0.625 0
3.125 0.5 0
3.25 0.5 0
3.125 0.625 0
3.25 0.625 0
3 0.625 0
3.125 0.625 0
3 0.75 0
3.125 0.75 0
3.125 0.625 0
3.25 0.625 0
3.125 0.75 0
3.25 0.75 0
3.25 0.5 0
3.375 0.5 0
3.25 0.625 0
3.375 0.625 0
3.375 0.5 0
3.5 0.5 0
3.375 0.625 0
3.5 0.625 0
3.25 0.625 0
3.375 0.625 0
3.25 0.75 0
3.375 0.75 0
3.375 0.625 0
3.5 0.625 0
3.375 0.75 0
3.5 0.75 0
3 0.75 0
3.125 0.75 0
3 0.875 0
3.125 0.875 0
3.125 0.75 0
3.25 0.75 0
3.125 0.875 0
3.25 0.875 0
3 0.875 0
3.125 0.875 0
3 1 0
3.125 1 0
3.125 0.875 0
3.25 0.875 0
3.125 1 0
3.25 1 0
3.25 0.75 0
3.375 0.75 0
3.25 0.875 0
3.375 0.875 0
3.375 0.75 0
3.5 0.75 0
3.375 0.875 0
3.5 0.875 0
3.25 0.875 0
3.375 0.875 0
3.25 1 0
3.375 1 0
3.375 0.875 0
3.5 0.875 0
3.375 1 0
3.5 1 0
3.5 0.5 0
3.625 0.5 0
3.5 0.625 0
3.625 0.625 0
3.625 0.5 0
3.75 0.5 0
3.625 0.625 0
3.75 0.625 0
3.5 0.625 0
3.625 0.625 0
3.5 0.75 0
3.625 0.75 0
3.625 0.625 0
3.75 0.625 0
3.625 0.75 0
3.75 0.75 0
3.75 0.5 0
3.875 0.5 0
3.75 0.625 0
3.875 0.625 0
3.875 0.5 0
4 0.5 0
3.875 0.625 0
4 0.625 0
3.75 0.625 0
3.875 0.625 0
3.75 0.75 0
3.875 0.75 0
3.875 0.625 0
4 0.625 0
3.875 0.75 0
4 0.75 0
3.5 0.75 0
3.625 0.75 0
3.5 0.875 0
3.625 0.875 0
3.625 0.75 0
3.75 0.75 0
3.625 0.875 0
3.75 0.875 0
3.5 0.875 0
3.625 0.875 0
3.5 1 0
3.625 1 0
3.625 0.875 0
3.75 0.875 0
3.625 1 0
3.75 1 0
3.75 0.75 0
3.875 0.75 0
3.75 0.875 0
3.875 0.875 0
3.875 0.75 0
4 0.75 0
3.875 0.875 0
4 0.875 0
3.75 0.875 0
3.875 0.875 0
3.75 1 0
3.875 1 0
3.875 0.875 0
4 0.875 0
3.875 1 0
4 1 0
2 0 0
2.125 0 0
2 0.125 0
2.125 0.125 0
2.125 0 0
2.25 0 0
2.125 0.125 0
2.25 0.125 0
2 0.125 0
2.125 0.125 0
2 0.25 0
2.125 0.25 0
2.125 0.125 0
2.25 0.125 0
2.125 0.25 0
2.25 0.25 0
2.25 0 0
2.375 0 0
2.25 0.125 0
2.375 0.125 0
2.375 0 0
2.5 0 0
2.375 0.125 0
2.5 0.125 0
2.25 0.125 0
2.375 0.125 0
2.25 0.25 0
2.375 0.25 0
2.375 0.125 0
2.5 0.125 0
2.375 0.25 0
2.5 0.25 0
2 0.25 0
2.125 0.25 0
2 0.375 0
2.125 0.375 0
2.125 0.25 0
2.25 0.25 0
2.125 0.375 0
2.25 0.375 0
2 0.375 0
2.125 0.375 0
2 0.5 0
2.125 0.5 0
2.125 0.375 0
2.25 0.375 0
2.125 0.5 0
2.25 0.5 0
2.25 0.25 0
2.375 0.25 0
2.25 0.375 0
2.375 0.375 0
2.375 0.25 0
[...]
POINT_DATA 1536
VECTORS displacements double
39.5104 -46.276 0
40.2355 -41.3592 0
34.7573 -46.5088 0
35.3561 -41.5589 0
40.2355 -41.3592 0
40.9871 -36.2736 0
35.3561 -41.5589 0
35.8724 -36.4984 0
34.7573 -46.5088 0
35.3561 -41.5589 0
30.6931 -46.7 0
31.0641 -41.7092 0
35.3561 -41.5589 0
35.8724 -36.4984 0
31.0641 -41.7092 0
31.4114 -36.6237 0
40.9871 -36.2736 0
41.6584 -30.9993 0
35.8724 -36.4984 0
36.4236 -31.1762 0
41.6584 -30.9993 0
42.3726 -25.5566 0
36.4236 -31.1762 0
36.8943 -25.7738 0
35.8724 -36.4984 0
36.4236 -31.1762 0
31.4114 -36.6237 0
31.7688 -31.3054 0
36.4236 -31.1762 0
36.8943 -25.7738 0
31.7688 -31.3054 0
32.0523 -25.8615 0
30.6931 -46.7 0
31.0641 -41.7092 0
26.6789 -46.7316 0
26.9176 -41.8649 0
31.0641 -41.7092 0
31.4114 -36.6237 0
26.9176 -41.8649 0
27.0493 -36.6979 0
26.6789 -46.7316 0
26.9176 -41.8649 0
22.8144 -46.8191 0
22.7899 -41.8105 0
26.9176 -41.8649 0
27.0493 -36.6979 0
22.7899 -41.8105 0
22.8509 -36.7616 0
31.4114 -36.6237 0
31.7688 -31.3054 0
27.0493 -36.6979 0
27.1685 -31.3432 0
31.7688 -31.3054 0
32.0523 -25.8615 0
27.1685 -31.3432 0
27.3331 -25.8736 0
27.0493 -36.6979 0
27.1685 -31.3432 0
22.8509 -36.7616 0
22.7697 -31.3074 0
27.1685 -31.3432 0
27.3331 -25.8736 0
22.7697 -31.3074 0
22.7182 -25.8402 0
42.3726 -25.5566 0
43.0084 -19.9446 0
36.8943 -25.7738 0
37.4071 -20.0862 0
43.0084 -19.9446 0
43.7959 -14.0836 0
37.4071 -20.0862 0
37.7515 -14.3368 0
36.8943 -25.7738 0
37.4071 -20.0862 0
32.0523 -25.8615 0
32.359 -20.1631 0
37.4071 -20.0862 0
37.7515 -14.3368 0
32.359 -20.1631 0
32.5751 -14.377 0
43.7959 -14.0836 0
44.5956 -7.90117 0
37.7515 -14.3368 0
37.9922 -7.79992 0
44.5956 -7.90117 0
45.0164 0 0
37.9922 -7.79992 0
38.2157 -1.43913 0
37.7515 -14.3368 0
37.9922 -7.79992 0
32.5751 -14.377 0
32.6071 -8.13843 0
37.9922 -7.79992 0
38.2157 -1.43913 0
32.6071 -8.13843 0
32.7198 -2.2978 0
32.0523 -25.8615 0
32.359 -20.1631 0
27.3331 -25.8736 0
27.4224 -20.2388 0
32.359 -20.1631 0
32.5751 -14.377 0
27.4224 -20.2388 0
27.4033 -14.4336 0
27.3331 -25.8736 0
27.4224 -20.2388 0
22.7182 -25.8402 0
22.6285 -20.2919 0
27.4224 -20.2388 0
27.4033 -14.4336 0
22.6285 -20.2919 0
22.4698 -14.6447 0
32.5751 -14.377 0
32.6071 -8.13843 0
27.4033 -14.4336 0
27.3891 -8.6192 0
32.6071 -8.13843 0
32.7198 -2.2978 0
27.3891 -8.6192 0
27.3887 -2.75565 0
27.4033 -14.4336 0
27.3891 -8.6192 0
22.4698 -14.6447 0
22.3624 -8.92035 0
27.3891 -8.6192 0
27.3887 -2.75565 0
22.3624 -8.92035 0
22.4598 -3.48496 0
22.8144 -46.8191 0
22.7899 -41.8105 0
18.9228 -46.7946 0
18.7448 -41.8133 0
22.7899 -41.8105 0
22.8509 -36.7616 0
18.7448 -41.8133 0
18.4698 -36.5872 0
18.9228 -46.7946 0
18.7448 -41.8133 0
14.8885 -46.6278 0
14.5749 -41.6771 0
18.7448 -41.8133 0
18.4698 -36.5872 0
14.5749 -41.6771 0
14.1804 -36.4853 0
22.8509 -36.7616 0
22.7697 -31.3074 0
18.4698 -36.5872 0
18.3519 -31.2842 0
22.7697 -31.3074 0
22.7182 -25.8402 0
18.3519 -31.2842 0
18.1215 -25.8518 0
18.4698 -36.5872 0
18.3519 -31.2842 0
14.1804 -36.4853 0
13.7649 -31.2223 0
18.3519 -31.2842 0
18.1215 -25.8518 0
13.7649 -31.2223 0
13.3901 -25.8408 0
14.8885 -46.6278 0
14.5749 -41.6771 0
10.6855 -46.3981 0
10.0802 -41.4684 0
14.5749 -41.6771 0
14.1804 -36.4853 0
10.0802 -41.4684 0
9.5273 -36.3911 0
10.6855 -46.3981 0
10.0802 -41.4684 0
6.0594 -46.1693 0
5.40927 -41.2486 0
10.0802 -41.4684 0
9.5273 -36.3911 0
5.40927 -41.2486 0
4.99479 -36.3587 0
14.1804 -36.4853 0
13.7649 -31.2223 0
9.5273 -36.3911 0
9.09908 -31.1352 0
13.7649 -31.2223 0
13.3901 -25.8408 0
9.09908 -31.1352 0
8.8057 -25.9041 0
9.5273 -36.3911 0
9.09908 -31.1352 0
4.99479 -36.3587 0
4.40728 -31.0999 0
9.09908 -31.1352 0
8.8057 -25.9041 0
4.40728 -31.0999 0
3.77322 -25.7688 0
22.7182 -25.8402 0
22.6285 -20.2919 0
18.1215 -25.8518 0
17.8397 -20.3579 0
22.6285 -20.2919 0
22.4698 -14.6447 0
17.8397 -20.3579 0
17.6809 -14.8255 0
18.1215 -25.8518 0
17.8397 -20.3579 0
13.3901 -25.8408 0
13.1852 -20.4551 0
17.8397 -20.3579 0
17.6809 -14.8255 0
13.1852 -20.4551 0
12.9763 -14.9313 0
22.4698 -14.6447 0
22.3624 -8.92035 0
17.6809 -14.8255 0
17.6111 -9.24585 0
22.3624 -8.92035 0
22.4598 -3.48496 0
17.6111 -9.24585 0
17.6853 -4.05762 0
17.6809 -14.8255 0
17.6111 -9.24585 0
12.9763 -14.9313 0
12.8867 -9.49281 0
17.6111 -9.24585 0
17.6853 -4.05762 0
12.8867 -9.49281 0
12.9169 -4.38237 0
13.3901 -25.8408 0
13.1852 -20.4551 0
8.8057 -25.9041 0
8.42505 -20.4343 0
13.1852 -20.4551 0
12.9763 -14.9313 0
8.42505 -20.4343 0
8.158 -14.9618 0
8.8057 -25.9041 0
8.42505 -20.4343 0
3.77322 -25.7688 0
3.3067 -20.3391 0
8.42505 -20.4343 0
8.158 -14.9618 0
3.3067 -20.3391 0
3.02818 -14.9212 0
12.9763 -14.9313 0
12.8867 -9.49281 0
8.158 -14.9618 0
8.03066 -9.60673 0
12.8867 -9.49281 0
12.9169 -4.38237 0
8.03066 -9.60673 0
8.0083 -4.4852 0
8.158 -14.9618 0
8.03066 -9.60673 0
3.02818 -14.9212 0
2.93648 -9.62551 0
8.03066 -9.60673 0
8.0083 -4.4852 0
2.93648 -9.62551 0
2.93125 -4.49115 0
32.2895 -77.9857 0
33.3297 -74.8746 0
29.4574 -78.2784 0
30.182 -75.1709 0
33.3297 -74.8746 0
34.2862 -71.4877 0
30.182 -75.1709 0
30.9298 -71.7609 0
29.4574 -78.2784 0
30.182 -75.1709 0
27.1134 -78.4885 0
27.5368 -75.3491 0
30.182 -75.1709 0
30.9298 -71.7609 0
27.5368 -75.3491 0
27.9707 -71.9622 0
34.2862 -71.4877 0
35.2399 -67.8791 0
30.9298 -71.7609 0
31.6196 -68.1284 0
35.2399 -67.8791 0
36.2038 -64.0053 0
31.6196 -68.1284 0
32.2258 -64.276 0
30.9298 -71.7609 0
31.6196 -68.1284 0
27.9707 -71.9622 0
28.4374 -68.2629 0
31.6196 -68.1284 0
32.2258 -64.276 0
28.4374 -68.2629 0
28.9294 -64.4075 0
27.1134 -78.4885 0
27.5368 -75.3491 0
24.9893 -78.5637 0
25.109 -75.4379 0
27.5368 -75.3491 0
27.9707 -71.9622 0
25.109 -75.4379 0
25.2691 -72.0051 0
24.9893 -78.5637 0
25.109 -75.4379 0
22.8752 -78.5064 0
22.7449 -75.3832 0
25.109 -75.4379 0
25.2691 -72.0051 0
22.7449 -75.3832 0
22.6925 -71.9449 0
27.9707 -71.9622 0
28.4374 -68.2629 0
25.2691 -72.0051 0
25.5076 -68.3474 0
28.4374 -68.2629 0
28.9294 -64.4075 0
25.5076 -68.3474 0
25.7007 -64.4563 0
25.2691 -72.0051 0
25.5076 -68.3474 0
22.6925 -71.9449 0
22.6426 -68.3365 0
25.5076 -68.3474 0
25.7007 -64.4563 0
22.6426 -68.3365 0
22.6804 -64.4171 0
36.2038 -64.0053 0
37.081 -59.8304 0
32.2258 -64.276 0
32.8921 -60.0821 0
37.081 -59.8304 0
37.8816 -55.4897 0
32.8921 -60.0821 0
33.5774 -55.7253 0
32.2258 -64.276 0
32.8921 -60.0821 0
28.9294 -64.4075 0
29.3995 -60.3114 0
32.8921 -60.0821 0
33.5774 -55.7253 0
29.3995 -60.3114 0
29.8494 -55.9245 0
37.8816 -55.4897 0
38.706 -51.0011 0
33.5774 -55.7253 0
34.1864 -51.2371 0
38.706 -51.0011 0
39.5104 -46.276 0
34.1864 -51.2371 0
34.7573 -46.5088 0
33.5774 -55.7253 0
34.1864 -51.2371 0
29.8494 -55.9245 0
30.2579 -51.3793 0
34.1864 -51.2371 0
34.7573 -46.5088 0
30.2579 -51.3793 0
30.6931 -46.7 0
28.9294 -64.4075 0
29.3995 -60.3114 0
25.7007 -64.4563 0
25.9559 -60.3728 0
29.3995 -60.3114 0
29.8494 -55.9245 0
25.9559 -60.3728 0
26.2259 -56.0727 0
25.7007 -64.4563 0
25.9559 -60.3728 0
22.6804 -64.4171 0
22.6017 -60.3635 0
25.9559 -60.3728 0
26.2259 -56.0727 0
22.6017 -60.3635 0
22.6619 -56.0479 0
29.8494 -55.9245 0
30.2579 -51.3793 0
26.2259 -56.0727 0
26.4647 -51.5412 0
30.2579 -51.3793 0
30.6931 -46.7 0
26.4647 -51.5412 0
26.6789 -46.7316 0
26.2259 -56.0727 0
26.4647 -51.5412 0
22.6619 -56.0479 0
22.7782 -51.5925 0
26.4647 -51.5412 0
26.6789 -46.7316 0
22.7782 -51.5925 0
22.8144 -46.8191 0
22.8752 -78.5064 0
22.7449 -75.3832 0
20.7084 -78.3244 0
20.3531 -75.1977 0
22.7449 -75.3832 0
22.6925 -71.9449 0
20.3531 -75.1977 0
20.0509 -71.8298 0
20.7084 -78.3244 0
20.3531 -75.1977 0
18.4616 -78.0709 0
17.9231 -74.9707 0
20.3531 -75.1977 0
20.0509 -71.8298 0
17.9231 -74.9707 0
17.4171 -71.6304 0
22.6925 -71.9449 0
22.6426 -68.3365 0
20.0509 -71.8298 0
19.8163 -68.2166 0
22.6426 -68.3365 0
22.6804 -64.4171 0
19.8163 -68.2166 0
19.5589 -64.3481 0
20.0509 -71.8298 0
19.8163 -68.2166 0
17.4171 -71.6304 0
16.9299 -68.0529 0
19.8163 -68.2166 0
19.5589 -64.3481 0
16.9299 -68.0529 0
16.5143 -64.1848 0
18.4616 -78.0709 0
17.9231 -74.9707 0
16.1227 -77.7924 0
15.3321 -74.7072 0
17.9231 -74.9707 0
17.4171 -71.6304 0
15.3321 -74.7072 0
14.6169 -71.4032 0
16.1227 -77.7924 0
15.3321 -74.7072 0
13.2063 -77.4877 0
12.2258 -74.4214 0
15.3321 -74.7072 0
14.6169 -71.4032 0
12.2258 -74.4214 0
11.2295 -71.1117 0
17.4171 -71.6304 0
16.9299 -68.0529 0
14.6169 -71.4032 0
13.8815 -67.8092 0
16.9299 -68.0529 0
16.5143 -64.1848 0
13.8815 -67.8092 0
13.1996 -64.011 0
14.6169 -71.4032 0
13.8815 -67.8092 0
11.2295 -71.1117 0
10.2987 -67.5411 0
13.8815 -67.8092 0
13.1996 -64.011 0
10.2987 -67.5411 0
9.37316 -63.7473 0
22.6804 -64.4171 0
22.6017 -60.3635 0
19.5589 -64.3481 0
19.4432 -60.2684 0
22.6017 -60.3635 0
22.6619 -56.0479 0
19.4432 -60.2684 0
19.2028 -55.9788 0
19.5589 -64.3481 0
19.4432 -60.2684 0
16.5143 -64.1848 0
16.0594 -60.1479 0
19.4432 -60.2684 0
19.2028 -55.9788 0
16.0594 -60.1479 0
15.6758 -55.8487 0
22.6619 -56.0479 0
22.7782 -51.5925 0
19.2028 -55.9788 0
19.0026 -51.485 0
22.7782 -51.5925 0
22.8144 -46.8191 0
19.0026 -51.485 0
18.9228 -46.7946 0
19.2028 -55.9788 0
19.0026 -51.485 0
15.6758 -55.8487 0
15.2706 -51.3139 0
19.0026 -51.485 0
18.9228 -46.7946 0
15.2706 -51.3139 0
14.8885 -46.6278 0
16.5143 -64.1848 0
16.0594 -60.1479 0
13.1996 -64.011 0
12.557 -59.9508 0
16.0594 -60.1479 0
15.6758 -55.8487 0
12.557 -59.9508 0
11.8974 -55.6406 0
13.1996 -64.011 0
12.557 -59.9508 0
9.37316 -63.7473 0
8.46899 -59.6922 0
12.557 -59.9508 0
11.8974 -55.6406 0
8.46899 -59.6922 0
7.63664 -55.4007 0
15.6758 -55.8487 0
15.2706 -51.3139 0
11.8974 -55.6406 0
11.2931 -51.1358 0
15.2706 -51.3139 0
14.8885 -46.6278 0
11.2931 -51.1358 0
10.6855 -46.3981 0
11.8974 -55.6406 0
11.2931 -51.1358 0
7.63664 -55.4007 0
6.81333 -50.8968 0
11.2931 -51.1358 0
10.6855 -46.3981 0
6.81333 -50.8968 0
6.0594 -46.1693 0
22.5082 -89.6369 0
23.8076 -89.4662 0
22.5082 -90.0195 0
23.4837 -89.8475 0
23.8076 -89.4662 0
25.0972 -88.9587 0
23.4837 -89.8475 0
24.4569 -89.3367 0
22.5082 -90.0195 0
23.4837 -89.8475 0
22.5082 -90.707 0
23.4378 -90.496 0
23.4837 -89.8475 0
24.4569 -89.3367 0
23.4378 -90.496 0
24.284 -89.8515 0
25.0972 -88.9587 0
26.3695 -88.1276 0
24.4569 -89.3367 0
25.4233 -88.4982 0
26.3695 -88.1276 0
27.6423 -86.9367 0
25.4233 -88.4982 0
26.3111 -87.2921 0
24.4569 -89.3367 0
25.4233 -88.4982 0
24.284 -89.8515 0
24.9847 -88.8639 0
25.4233 -88.4982 0
26.3111 -87.2921 0
24.9847 -88.8639 0
25.3877 -87.603 0
22.5082 -90.707 0
23.4378 -90.496 0
22.5082 -91.3962 0
23.223 -91.1633 0
23.4378 -90.496 0
24.284 -89.8515 0
23.223 -91.1633 0
23.8608 -90.4813 0
22.5082 -91.3962 0
23.223 -91.1633 0
22.5082 -92.0604 0
22.9797 -91.8142 0
23.223 -91.1633 0
23.8608 -90.4813 0
22.9797 -91.8142 0
23.3581 -91.0843 0
24.284 -89.8515 0
24.9847 -88.8639 0
23.8608 -90.4813 0
24.3278 -89.2812 0
24.9847 -88.8639 0
25.3877 -87.603 0
24.3278 -89.2812 0
24.5874 -87.9257 0
23.8608 -90.4813 0
24.3278 -89.2812 0
23.3581 -91.0843 0
23.5415 -89.7011 0
24.3278 -89.2812 0
24.5874 -87.9257 0
23.5415 -89.7011 0
23.5597 -88.12 0
27.6423 -86.9367 0
28.9042 -85.2871 0
26.3111 -87.2921 0
27.1095 -85.6356 0
28.9042 -85.2871 0
30.0719 -83.2145 0
27.1095 -85.6356 0
27.9462 -83.5297 0
26.3111 -87.2921 0
27.1095 -85.6356 0
25.3877 -87.603 0
25.8464 -85.8401 0
27.1095 -85.6356 0
27.9462 -83.5297 0
25.8464 -85.8401 0
26.2858 -83.7725 0
30.0719 -83.2145 0
31.2183 -80.7818 0
27.9462 -83.5297 0
28.6939 -81.0998 0
31.2183 -80.7818 0
32.2895 -77.9857 0
28.6939 -81.0998 0
29.4574 -78.2784 0
27.9462 -83.5297 0
28.6939 -81.0998 0
26.2858 -83.7725 0
26.6722 -81.2548 0
28.6939 -81.0998 0
29.4574 -78.2784 0
26.6722 -81.2548 0
27.1134 -78.4885 0
25.3877 -87.603 0
25.8464 -85.8401 0
24.5874 -87.9257 0
24.7172 -86.0271 0
25.8464 -85.8401 0
26.2858 -83.7725 0
24.7172 -86.0271 0
24.7898 -83.8718 0
24.5874 -87.9257 0
24.7172 -86.0271 0
23.5597 -88.12 0
23.4671 -86.1573 0
24.7172 -86.0271 0
24.7898 -83.8718 0
23.4671 -86.1573 0
23.2643 -83.8553 0
26.2858 -83.7725 0
26.6722 -81.2548 0
24.7898 -83.8718 0
24.9164 -81.3261 0
26.6722 -81.2548 0
27.1134 -78.4885 0
24.9164 -81.3261 0
24.9893 -78.5637 0
24.7898 -83.8718 0
24.9164 -81.3261 0
23.2643 -83.8553 0
23.0751 -81.348 0
24.9164 -81.3261 0
24.9893 -78.5637 0
23.0751 -81.348 0
22.8752 -78.5064 0
22.5082 -92.0604 0
22.9797 -91.8142 0
22.5082 -92.7452 0
22.7127 -92.4319 0
22.9797 -91.8142 0
23.3581 -91.0843 0
22.7127 -92.4319 0
22.8274 -91.6406 0
22.5082 -92.7452 0
22.7127 -92.4319 0
22.5082 -93.3372 0
22.2638 -93.0831 0
22.7127 -92.4319 0
22.8274 -91.6406 0
22.2638 -93.0831 0
22.0043 -91.833 0
23.3581 -91.0843 0
23.5415 -89.7011 0
22.8274 -91.6406 0
22.6606 -90.0138 0
23.5415 -89.7011 0
23.5597 -88.12 0
22.6606 -90.0138 0
22.4096 -88.1971 0
22.8274 -91.6406 0
22.6606 -90.0138 0
22.0043 -91.833 0
21.609 -90.1362 0
22.6606 -90.0138 0
22.4096 -88.1971 0
21.609 -90.1362 0
21.0331 -88.1254 0
22.5082 -93.3372 0
22.2638 -93.0831 0
22.5082 -94.0283 0
21.8534 -93.2825 0
22.2638 -93.0831 0
22.0043 -91.833 0
21.8534 -93.2825 0
21.1208 -91.8279 0
22.5082 -94.0283 0
21.8534 -93.2825 0
22.5082 -93.9431 0
20.9903 -93.1345 0
21.8534 -93.2825 0
21.1208 -91.8279 0
20.9903 -93.1345 0
19.6846 -91.5224 0
22.0043 -91.833 0
21.609 -90.1362 0
21.1208 -91.8279 0
20.3432 -90.0814 0
21.609 -90.1362 0
21.0331 -88.1254 0
20.3432 -90.0814 0
19.4806 -88.0129 0
21.1208 -91.8279 0
20.3432 -90.0814 0
19.6846 -91.5224 0
18.4693 -89.7533 0
20.3432 -90.0814 0
19.4806 -88.0129 0
18.4693 -89.7533 0
17.356 -87.6888 0
23.5597 -88.12 0
23.4671 -86.1573 0
22.4096 -88.1971 0
21.9687 -86.1125 0
23.4671 -86.1573 0
23.2643 -83.8553 0
21.9687 -86.1125 0
21.5497 -83.7946 0
22.4096 -88.1971 0
21.9687 -86.1125 0
21.0331 -88.1254 0
20.4401 -86.0004 0
21.9687 -86.1125 0
21.5497 -83.7946 0
20.4401 -86.0004 0
19.7393 -83.5915 0
23.2643 -83.8553 0
23.0751 -81.348 0
21.5497 -83.7946 0
21.0936 -81.2274 0
23.0751 -81.348 0
22.8752 -78.5064 0
21.0936 -81.2274 0
20.7084 -78.3244 0
21.5497 -83.7946 0
21.0936 -81.2274 0
19.7393 -83.5915 0
19.0675 -80.8578 0
21.0936 -81.2274 0
20.7084 -78.3244 0
19.0675 -80.8578 0
18.4616 -78.0709 0
21.0331 -88.1254 0
20.4401 -86.0004 0
19.4806 -88.0129 0
18.6127 -85.7296 0
20.4401 -86.0004 0
19.7393 -83.5915 0
18.6127 -85.7296 0
17.7446 -83.266 0
19.4806 -88.0129 0
18.6127 -85.7296 0
17.356 -87.6888 0
16.2861 -85.4103 0
18.6127 -85.7296 0
17.7446 -83.266 0
16.2861 -85.4103 0
15.2546 -82.953 0
19.7393 -83.5915 0
19.0675 -80.8578 0
17.7446 -83.266 0
16.9069 -80.63 0
19.0675 -80.8578 0
18.4616 -78.0709 0
16.9069 -80.63 0
16.1227 -77.7924 0
17.7446 -83.266 0
16.9069 -80.63 0
15.2546 -82.953 0
14.2334 -80.3269 0
16.9069 -80.63 0
16.1227 -77.7924 0
14.2334 -80.3269 0
13.2063 -77.4877 0
12.7268 -77.9857 0
13.798 -80.7818 0
15.559 -78.2784 0
16.3224 -81.0998 0
13.798 -80.7818 0
14.9445 -83.2145 0
16.3224 -81.0998 0
17.0701 -83.5297 0
15.559 -78.2784 0
16.3224 -81.0998 0
17.903 -78.4885 0
18.3442 -81.2548 0
16.3224 -81.0998 0
17.0701 -83.5297 0
18.3442 -81.2548 0
18.7305 -83.7725 0
14.9445 -83.2145 0
16.1122 -85.2871 0
17.0701 -83.5297 0
17.9068 -85.6356 0
16.1122 -85.2871 0
17.3741 -86.9367 0
17.9068 -85.6356 0
18.7052 -87.2921 0
17.0701 -83.5297 0
17.9068 -85.6356 0
18.7305 -83.7725 0
19.17 -85.8401 0
17.9068 -85.6356 0
18.7052 -87.2921 0
19.17 -85.8401 0
19.6287 -87.603 0
17.903 -78.4885 0
18.3442 -81.2548 0
20.0271 -78.5637 0
20.1 -81.3261 0
18.3442 -81.2548 0
18.7305 -83.7725 0
20.1 -81.3261 0
20.2266 -83.8718 0
20.0271 -78.5637 0
20.1 -81.3261 0
22.1411 -78.5064 0
21.9413 -81.348 0
20.1 -81.3261 0
20.2266 -83.8718 0
21.9413 -81.348 0
21.7521 -83.8553 0
18.7305 -83.7725 0
19.17 -85.8401 0
20.2266 -83.8718 0
20.2992 -86.0271 0
19.17 -85.8401 0
19.6287 -87.603 0
20.2992 -86.0271 0
20.4289 -87.9257 0
20.2266 -83.8718 0
20.2992 -86.0271 0
21.7521 -83.8553 0
21.5493 -86.1573 0
20.2992 -86.0271 0
20.4289 -87.9257 0
21.5493 -86.1573 0
21.4567 -88.12 0
17.3741 -86.9367 0
18.6469 -88.1276 0
18.7052 -87.2921 0
19.5931 -88.4982 0
18.6469 -88.1276 0
19.9192 -88.9587 0
19.5931 -88.4982 0
20.5594 -89.3367 0
18.7052 -87.2921 0
19.5931 -88.4982 0
19.6287 -87.603 0
20.0316 -88.8639 0
19.5931 -88.4982 0
20.5594 -89.3367 0
20.0316 -88.8639 0
20.7324 -89.8515 0
19.9192 -88.9587 0
21.2088 -89.4662 0
20.5594 -89.3367 0
21.5326 -89.8475 0
21.2088 -89.4662 0
22.5082 -89.6369 0
21.5326 -89.8475 0
22.5082 -90.0195 0
20.5594 -89.3367 0
21.5326 -89.8475 0
20.7324 -89.8515 0
21.5786 -90.496 0
21.5326 -89.8475 0
22.5082 -90.0195 0
21.5786 -90.496 0
22.5082 -90.707 0
19.6287 -87.603 0
20.0316 -88.8639 0
20.4289 -87.9257 0
20.6886 -89.2812 0
20.0316 -88.8639 0
20.7324 -89.8515 0
20.6886 -89.2812 0
21.1556 -90.4813 0
20.4289 -87.9257 0
20.6886 -89.2812 0
21.4567 -88.12 0
21.4748 -89.7011 0
20.6886 -89.2812 0
21.1556 -90.4813 0
21.4748 -89.7011 0
21.6583 -91.0843 0
20.7324 -89.8515 0
21.5786 -90.496 0
21.1556 -90.4813 0
21.7933 -91.1633 0
21.5786 -90.496 0
22.5082 -90.707 0
21.7933 -91.1633 0
22.5082 -91.3962 0
21.1556 -90.4813 0
21.7933 -91.1633 0
21.6583 -91.0843 0
22.0366 -91.8142 0
21.7933 -91.1633 0
22.5082 -91.3962 0
22.0366 -91.8142 0
22.5082 -92.0604 0
22.1411 -78.5064 0
21.9413 -81.348 0
24.308 -78.3244 0
23.9227 -81.2274 0
21.9413 -81.348 0
21.7521 -83.8553 0
23.9227 -81.2274 0
23.4667 -83.7946 0
24.308 -78.3244 0
23.9227 -81.2274 0
26.5548 -78.0709 0
25.9488 -80.8578 0
23.9227 -81.2274 0
23.4667 -83.7946 0
25.9488 -80.8578 0
25.277 -83.5915 0
21.7521 -83.8553 0
21.5493 -86.1573 0
23.4667 -83.7946 0
23.0477 -86.1125 0
21.5493 -86.1573 0
21.4567 -88.12 0
23.0477 -86.1125 0
22.6068 -88.1971 0
23.4667 -83.7946 0
23.0477 -86.1125 0
25.277 -83.5915 0
24.5762 -86.0004 0
23.0477 -86.1125 0
22.6068 -88.1971 0
24.5762 -86.0004 0
23.9833 -88.1254 0
26.5548 -78.0709 0
25.9488 -80.8578 0
28.8936 -77.7924 0
28.1095 -80.63 0
25.9488 -80.8578 0
25.277 -83.5915 0
28.1095 -80.63 0
27.2718 -83.266 0
28.8936 -77.7924 0
28.1095 -80.63 0
31.81 -77.4877 0
30.783 -80.3269 0
28.1095 -80.63 0
27.2718 -83.266 0
30.783 -80.3269 0
29.7618 -82.953 0
25.277 -83.5915 0
24.5762 -86.0004 0
27.2718 -83.266 0
26.4037 -85.7296 0
24.5762 -86.0004 0
23.9833 -88.1254 0
26.4037 -85.7296 0
25.5358 -88.0129 0
27.2718 -83.266 0
26.4037 -85.7296 0
29.7618 -82.953 0
28.7303 -85.4103 0
26.4037 -85.7296 0
25.5358 -88.0129 0
28.7303 -85.4103 0
27.6604 -87.6888 0
21.4567 -88.12 0
21.4748 -89.7011 0
22.6068 -88.1971 0
22.3557 -90.0138 0
21.4748 -89.7011 0
21.6583 -91.0843 0
22.3557 -90.0138 0
22.189 -91.6406 0
22.6068 -88.1971 0
22.3557 -90.0138 0
23.9833 -88.1254 0
23.4074 -90.1362 0
22.3557 -90.0138 0
22.189 -91.6406 0
23.4074 -90.1362 0
23.0121 -91.833 0
21.6583 -91.0843 0
22.0366 -91.8142 0
22.189 -91.6406 0
22.3037 -92.4319 0
22.0366 -91.8142 0
22.5082 -92.0604 0
22.3037 -92.4319 0
22.5082 -92.7452 0
22.189 -91.6406 0
22.3037 -92.4319 0
23.0121 -91.833 0
22.7525 -93.0831 0
22.3037 -92.4319 0
22.5082 -92.7452 0
22.7525 -93.0831 0
22.5082 -93.3372 0
23.9833 -88.1254 0
23.4074 -90.1362 0
25.5358 -88.0129 0
24.6732 -90.0814 0
23.4074 -90.1362 0
23.0121 -91.833 0
24.6732 -90.0814 0
23.8956 -91.8279 0
25.5358 -88.0129 0
24.6732 -90.0814 0
27.6604 -87.6888 0
26.5471 -89.7533 0
24.6732 -90.0814 0
23.8956 -91.8279 0
26.5471 -89.7533 0
25.3317 -91.5224 0
23.0121 -91.833 0
22.7525 -93.0831 0
23.8956 -91.8279 0
23.163 -93.2825 0
22.7525 -93.0831 0
22.5082 -93.3372 0
23.163 -93.2825 0
22.5082 -94.0283 0
23.8956 -91.8279 0
23.163 -93.2825 0
25.3317 -91.5224 0
24.026 -93.1345 0
23.163 -93.2825 0
22.5082 -94.0283 0
24.026 -93.1345 0
22.5082 -93.9431 0
5.50593 -46.276 0
6.31039 -51.0011 0
10.259 -46.5088 0
10.83 -51.2371 0
6.31039 -51.0011 0
7.13473 -55.4897 0
10.83 -51.2371 0
11.4389 -55.7253 0
10.259 -46.5088 0
10.83 -51.2371 0
14.3233 -46.7 0
14.7584 -51.3793 0
10.83 -51.2371 0
11.4389 -55.7253 0
14.7584 -51.3793 0
15.167 -55.9245 0
7.13473 -55.4897 0
7.93533 -59.8304 0
11.4389 -55.7253 0
12.1242 -60.0821 0
7.93533 -59.8304 0
8.81259 -64.0053 0
12.1242 -60.0821 0
12.7906 -64.276 0
11.4389 -55.7253 0
12.1242 -60.0821 0
15.167 -55.9245 0
15.6168 -60.3114 0
12.1242 -60.0821 0
12.7906 -64.276 0
15.6168 -60.3114 0
16.087 -64.4075 0
14.3233 -46.7 0
14.7584 -51.3793 0
18.3374 -46.7316 0
18.5517 -51.5412 0
14.7584 -51.3793 0
15.167 -55.9245 0
18.5517 -51.5412 0