# vtk DataFile Version 3.0
#This file was generated by the deal.II library on 2020/9/2 at 8:40:29
ASCII
DATASET UNSTRUCTURED_GRID

POINTS 1536 double
5 0 0
5.125 0 0
5 0.125 0
5.125 0.125 0
5.125 0 0
5.25 0 0
5.125 0.125 0
5.25 0.125 0
5 0.125 0
5.125 0.125 0
5 0.25 0
5.125 0.25 0
5.125 0.125 0
5.25 0.125 0
5.125 0.25 0
5.25 0.25 0
5.25 0 0
5.375 0 0
5.25 0.125 0
5.375 0.125 0
5.375 0 0
5.5 0 0
5.375 0.125 0
5.5 0.125 0
5.25 0.125 0
5.375 0.125 0
5.25 0.25 0
5.375 0.25 0
5.375 0.125 0
5.5 0.125 0
5.375 0.25 0
5.5 0.25 0
5 0.25 0
5.125 0.25 0
5 0.375 0
5.125 0.375 0
5.125 0.25 0
5.25 0.25 0
5.125 0.375 0
5.25 0.375 0
5 0.375 0
5.125 0.375 0
5 0.5 0
5.125 0.5 0
5.125 0.375 0
5.25 0.375 0
5.125 0.5 0
5.25 0.5 0
5.25 0.25 0
5.375 0.25 0
5.25 0.375 0
5.375 0.375 0
5.375 0.25 0
5.5 0.25 0
5.375 0.375 0
5.5 0.375 0
5.25 0.375 0
5.375 0.375 0
5.25 0.5 0
5.375 0.5 0
5.375 0.375 0
5.5 0.375 0
5.375 0.5 0
5.5 0.5 0
5.5 0 0
5.625 0 0
5.5 0.125 0
5.625 0.125 0
5.625 0 0
5.75 0 0
5.625 0.125 0
5.75 0.125 0
5.5 0.125 0
5.625 0.125 0
5.5 0.25 0
5.625 0.25 0
5.625 0.125 0
5.75 0.125 0
5.625 0.25 0
5.75 0.25 0
5.75 0 0
5.875 0 0
5.75 0.125 0
5.875 0.125 0
5.875 0 0
6 0 0
5.875 0.125 0
6 0.125 0
5.75 0.125 0
5.875 0.125 0
5.75 0.25 0
5.875 0.25 0
5.875 0.125 0
6 0.125 0
5.875 0.25 0
6 0.25 0
5.5 0.25 0
5.625 0.25 0
5.5 0.375 0
5.625 0.375 0
5.625 0.25 0
5.75 0.25 0
5.625 0.375 0
5.75 0.375 0
5.5 0.375 0
5.625 0.375 0
5.5 0.5 0
5.625 0.5 0
5.625 0.375 0
5.75 0.375 0
5.625 0.5 0
5.75 0.5 0
5.75 0.25 0
5.875 0.25 0
5.75 0.375 0
5.875 0.375 0
5.875 0.25 0
6 0.25 0
5.875 0.375 0
6 0.375 0
5.75 0.375 0
5.875 0.375 0
5.75 0.5 0
5.875 0.5 0
5.875 0.375 0
6 0.375 0
5.875 0.5 0
6 0.5 0
5 0.5 0
5.125 0.5 0
5 0.625 0
5.125 0.625 0
5.125 0.5 0
5.25 0.5 0
5.125 0.625 0
5.25 0.625 0
5 0.625 0
5.125 0.625 0
5 0.75 0
5.125 0.75 0
5.125 0.625 0
5.25 0.625 0
5.125 0.75 0
5.25 0.75 0
5.25 0.5 0
5.375 0.5 0
5.25 0.625 0
5.375 0.625 0
5.375 0.5 0
5.5 0.5 0
5.375 0.625 0
5.5 0.625 0
5.25 0.625 0
5.375 0.625 0
5.25 0.75 0
5.375 0.75 0
5.375 0.625 0
5.5 0.625 0
5.375 0.75 0
5.5 0.75 0
5 0.75 0
5.125 0.75 0
5 0.875 0
5.125 0.875 0
5.125 0.75 0
5.25 0.75 0
5.125 0.875 0
5.25 0.875 0
5 0.875 0
5.125 0.875 0
5 1 0
5.125 1 0
5.125 0.875 0
5.25 0.875 0
5.125 1 0
5.25 1 0
5.25 0.75 0
5.375 0.75 0
5.25 0.875 0
5.375 0.875 0
5.375 0.75 0
5.5 0.75 0
5.375 0.875 0
5.5 0.875 0
5.25 0.875 0
5.375 0.875 0
5.25 1 0
5.375 1 0
5.375 0.875 0
5.5 0.875 0
5.375 1 0
5.5 1 0
5.5 0.5 0
5.625 0.5 0
5.5 0.625 0
5.625 0.625 0
5.625 0.5 0
5.75 0.5 0
5.625 0.625 0
5.75 0.625 0
5.5 0.625 0
5.625 0.625 0
5.5 0.75 0
5.625 0.75 0
5.625 0.625 0
5.75 0.625 0
5.625 0.75 0
5.75 0.75 0
5.75 0.5 0
5.875 0.5 0
5.75 0.625 0
5.875 0.625 0
5.875 0.5 0
6 0.5 0
5.875 0.625 0
6 0.625 0
5.75 0.625 0
5.875 0.625 0
5.75 0.75 0
5.875 0.75 0
5.875 0.625 0
6 0.625 0
5.875 0.75 0
6 0.75 0
5.5 0.75 0
5.625 0.75 0
5.5 0.875 0
5.625 0.875 0
5.625 0.75 0
5.75 0.75 0
5.625 0.875 0
5.75 0.875 0
5.5 0.875 0
5.625 0.875 0
5.5 1 0
5.625 1 0
5.625 0.875 0
5.75 0.875 0
5.625 1 0
5.75 1 0
5.75 0.75 0
5.875 0.75 0
5.75 0.875 0
5.875 0.875 0
5.875 0.75 0
6 0.75 0
5.875 0.875 0
6 0.875 0
5.75 0.875 0
5.875 0.875 0
5.75 1 0
5.875 1 0
5.875 0.875 0
6 0.875 0
5.875 1 0
6 1 0
4 0 0
4.125 0 0
4 0.125 0
4.125 0.125 0
4.125 0 0
4.25 0 0
4.125 0.125 0
4.25 0.125 0
4 0.125 0
4.125 0.125 0
4 0.25 0
4.125 0.25 0
4.125 0.125 0
4.25 0.125 0
4.125 0.25 0
4.25 0.25 0
4.25 0 0
4.375 0 0
4.25 0.125 0
4.375 0.125 0
4.375 0 0
4.5 0 0
4.375 0.125 0
4.5 0.125 0
4.25 0.125 0
4.375 0.125 0
4.25 0.25 0
4.375 0.25 0
4.375 0.125 0
4.5 0.125 0
4.375 0.25 0
4.5 0.25 0
4 0.25 0
4.125 0.25 0
4 0.375 0
4.125 0.375 0
4.125 0.25 0
4.25 0.25 0
4.125 0.375 0
4.25 0.375 0
4 0.375 0
4.125 0.375 0
4 0.5 0
4.125 0.5 0
4.125 0.375 0
4.25 0.375 0
4.125 0.5 0
4.25 0.5 0
4.25 0.25 0
4.375 0.25 0
4.25 0.375 0
4.375 0.375 0
4.375 0.25 0
4.5 0.25 0
4.375 0.375 0
4.5 0.375 0
4.25 0.375 0
4.375 0.375 0
4.25 0.5 0
4.375 0.5 0
4.375 0.375 0
4.5 0.375 0
4.375 0.5 0
4.5 0.5 0
4.5 0 0
4.625 0 0
4.5 0.125 0
4.625 0.125 0
4.625 0 0
4.75 0 0
4.625 0.125 0
4.75 0.125 0
4.5 0.125 0
4.625 0.125 0
4.5 0.25 0
4.625 0.25 0
4.625 0.125 0
4.75 0.125 0
4.625 0.25 0
4.75 0.25 0
4.75 0 0
4.875 0 0
4.75 0.125 0
4.875 0.125 0
4.875 0 0
5 0 0
4.875 0.125 0
5 0.125 0
4.75 0.125 0
4.875 0.125 0
4.75 0.25 0
4.875 0.25 0
4.875 0.125 0
5 0.125 0
4.875 0.25 0
5 0.25 0
4.5 0.25 0
4.625 0.25 0
4.5 0.375 0
4.625 0.375 0
4.625 0.25 0
4.75 0.25 0
4.625 0.375 0
4.75 0.375 0
4.5 0.375 0
4.625 0.375 0
4.5 0.5 0
4.625 0.5 0
4.625 0.375 0
4.75 0.375 0
4.625 0.5 0
4.75 0.5 0
4.75 0.25 0
4.875 0.25 0
4.75 0.375 0
4.875 0.375 0
4.875 0.25 0
5 0.25 0
4.875 0.375 0
5 0.375 0
4.75 0.375 0
4.875 0.375 0
4.75 0.5 0
4.875 0.5 0
4.875 0.375 0
5 0.375 0
4.875 0.5 0
5 0.5 0
4 0.5 0
4.125 0.5 0
4 0.625 0
4.125 0.625 0
4.125 0.5 0
4.25 0.5 0
4.125 0.625 0
4.25 0.625 0
4 0.625 0
4.125 0.625 0
4 0.75 0
4.125 0.75 0
4.125 0.625 0
4.25 0.625 0
4.125 0.75 0
4.25 0.75 0
4.25 0.5 0
4.375 0.5 0
4.25 0.625 0
4.375 0.625 0
4.375 0.5 0
4.5 0.5 0
4.375 0.625 0
4.5 0.625 0
4.25 0.625 0
4.375 0.625 0
4.25 0.75 0
4.375 0.75 0
4.375 0.625 0
4.5 0.625 0
4.375 0.75 0
4.5 0.75 0
4 0.75 0
4.125 0.75 0
4 0.875 0
4.125 0.875 0
4.125 0.75 0
4.25 0.75 0
4.125 0.875 0
4.25 0.875 0
4 0.875 0
4.125 0.875 0
4 1 0
4.125 1 0
4.125 0.875 0
4.25 0.875 0
4.125 1 0
4.25 1 0
4.25 0.75 0
4.375 0.75 0
4.25 0.875 0
4.375 0.875 0
4.375 0.75 0
4.5 0.75 0
4.375 0.875 0
4.5 0.875 0
4.25 0.875 0
4.375 0.875 0
4.25 1 0
4.375 1 0
4.375 0.875 0
4.5 0.875 0
4.375 1 0
4.5 1 0
4.5 0.5 0
4.625 0.5 0
4.5 0.625 0
4.625 0.625 0
4.625 0.5 0
4.75 0.5 0
4.625 0.625 0
4.75 0.625 0
4.5 0.625 0
4.625 0.625 0
4.5 0.75 0
4.625 0.75 0
4.625 0.625 0
4.75 0.625 0
4.625 0.75 0
4.75 0.75 0
4.75 0.5 0
4.875 0.5 0
4.75 0.625 0
4.875 0.625 0
4.875 0.5 0
5 0.5 0
4.875 0.625 0
5 0.625 0
4.75 0.625 0
4.875 0.625 0
4.75 0.75 0
4.875 0.75 0
4.875 0.625 0
5 0.625 0
4.875 0.75 0
5 0.75 0
4.5 0.75 0
4.625 0.75 0
4.5 0.875 0
4.625 0.875 0
4.625 0.75 0
4.75 0.75 0
4.625 0.875 0
4.75 0.875 0
4.5 0.875 0
4.625 0.875 0
4.5 1 0
4.625 1 0
4.625 0.875 0
4.75 0.875 0
4.625 1 0
4.75 1 0
4.75 0.75 0
4.875 0.75 0
4.75 0.875 0
4.875 0.875 0
4.875 0.75 0
5 0.75 0
4.875 0.875 0
5 0.875 0
4.75 0.875 0
4.875 0.875 0
4.75 1 0
4.875 1 0
4.875 0.875 0
5 0.875 0
4.875 1 0
5 1 0
3 0 0
3.125 0 0
3 0.125 0
3.125 0.125 0
3.125 0 0
3.25 0 0
3.125 0.125 0
3.25 0.125 0
3 0.125 0
3.125 0.125 0
3 0.25 0
3.125 0.25 0
3.125 0.125 0
3.25 0.125 0
3.125 0.25 0
3.25 0.25 0
3.25 0 0
3.375 0 0
3.25 0.125 0
3.375 0.125 0
3.375 0 0
3.5 0 0
3.375 0.125 0
3.5 0.125 0
3.25 0.125 0
3.375 0.125 0
3.25 0.25 0
3.375 0.25 0
3.375 0.125 0
3.5 0.125 0
3.375 0.25 0
3.5 0.25 0
3 0.25 0
3.125 0.25 0
3 0.375 0
3.125 0.375 0
3.125 0.25 0
3.25 0.25 0
3.125 0.375 0
3.25 0.375 0
3 0.375 0
3.125 0.375 0
3 0.5 0
3.125 0.5 0
3.125 0.375 0
3.25 0.375 0
3.125 0.5 0
3.25 0.5 0
3.25 0.25 0
3.375 0.25 0
3.25 0.375 0
3.375 0.375 0
3.375 0.25 0
3.5 0.25 0
3.375 0.375 0
3.5 0.375 0
3.25 0.375 0
3.375 0.375 0
3.25 0.5 0
3.375 0.5 0
3.375 0.375 0
3.5 0.375 0
3.375 0.5 0
3.5 0.5 0
3.5 0 0
3.625 0 0
3.5 0.125 0
3.625 0.125 0
3.625 0 0
3.75 0 0
3.625 0.125 0
3.75 0.125 0
3.5 0.125 0
3.625 0.125 0
3.5 0.25 0
3.625 0.25 0
3.625 0.125 0
3.75 0.125 0
3.625 0.25 0
3.75 0.25 0
3.75 0 0
3.875 0 0
3.75 0.125 0
3.875 0.125 0
3.875 0 0
4 0 0
3.875 0.125 0
4 0.125 0
3.75 0.125 0
3.875 0.125 0
3.75 0.25 0
3.875 0.25 0
3.875 0.125 0
4 0.125 0
3.875 0.25 0
4 0.25 0
3.5 0.25 0
3.625 0.25 0
3.5 0.375 0
3.625 0.375 0
3.625 0.25 0
3.75 0.25 0
3.625 0.375 0
3.75 0.375 0
3.5 0.375 0
3.625 0.375 0
3.5 0.5 0
3.625 0.5 0
3.625 0.375 0
3.75 0.375 0
3.625 0.5 0
3.75 0.5 0
3.75 0.25 0
3.875 0.25 0
3.75 0.375 0
3.875 0.375 0
3.875 0.25 0
4 0.25 0
3.875 0.375 0
4 0.375 0
3.75 0.375 0
3.875 0.375 0
3.75 0.5 0
3.875 0.5 0
3.875 0.375 0
4 0.375 0
3.875 0.5 0
4 0.5 0
3 0.5 0
3.125 0.5 0
3 0.625 0
3.125 0.625 0
3.125 0.5 0
3.25 0.5 0
3.125 0.625 0
3.25 0.625 0
3 0.625 0
3.125 0.625 0
3 0.75 0
3.125 0.75 0
3.125 0.625 0
3.25 0.625 0
3.125 0.75 0
3.25 0.75 0
3.25 0.5 0
3.375 0.5 0
3.25 0.625 0
3.375 0.625 0
3.375 0.5 0
3.5 0.5 0
3.375 0.625 0
3.5 0.625 0
3.25 0.625 0
3.375 0.625 0
3.25 0.75 0
3.375 0.75 0
3.375 0.625 0
3.5 0.625 0
3.375 0.75 0
3.5 0.75 0
3 0.75 0
3.125 0.75 0
3 0.875 0
3.125 0.875 0
3.125 0.75 0
3.25 0.75 0
3.125 0.875 0
3.25 0.875 0
3 0.875 0
3.125 0.875 0
3 1 0
3.125 1 0
3.125 0.875 0
3.25 0.875 0
3.125 1 0
3.25 1 0
3.25 0.75 0
3.375 0.75 0
3.25 0.875 0
3.375 0.875 0
3.375 0.75 0
3.5 0.75 0
3.375 0.875 0
3.5 0.875 0
3.25 0.875 0
3.375 0.875 0
3.25 1 0
3.375 1 0
3.375 0.875 0
3.5 0.875 0
3.375 1 0
3.5 1 0
3.5 0.5 0
3.625 0.5 0
3.5 0.625 0
3.625 0.625 0
3.625 0.5 0
3.75 0.5 0
3.625 0.625 0
3.75 0.625 0
3.5 0.625 0
3.625 0.625 0
3.5 0.75 0
3.625 0.75 0
3.625 0.625 0
3.75 0.625 0
3.625 0.75 0
3.75 0.75 0
3.75 0.5 0
3.875 0.5 0
3.75 0.625 0
3.875 0.625 0
3.875 0.5 0
4 0.5 0
3.875 0.625 0
4 0.625 0
3.75 0.625 0
3.875 0.625 0
3.75 0.75 0
3.875 0.75 0
3.875 0.625 0
4 0.625 0
3.875 0.75 0
4 0.75 0
3.5 0.75 0
3.625 0.75 0
3.5 0.875 0
3.625 0.875 0
3.625 0.75 0
3.75 0.75 0
3.625 0.875 0
3.75 0.875 0
3.5 0.875 0
3.625 0.875 0
3.5 1 0
3.625 1 0
3.625 0.875 0
3.75 0.875 0
3.625 1 0
3.75 1 0
3.75 0.75 0
3.875 0.75 0
3.75 0.875 0
3.875 0.875 0
3.875 0.75 0
4 0.75 0
3.875 0.875 0
4 0.875 0
3.75 0.875 0
3.875 0.875 0
3.75 1 0
3.875 1 0
3.875 0.875 0
4 0.875 0
3.875 1 0
4 1 0
2 0 0
2.125 0 0
2 0.125 0
2.125 0.125 0
2.125 0 0
2.25 0 0
2.125 0.125 0
2.25 0.125 0
2 0.125 0
2.125 0.125 0
2 0.25 0
2.125 0.25 0
2.125 0.125 0
2.25 0.125 0
2.125 0.25 0
2.25 0.25 0
2.25 0 0
2.375 0 0
2.25 0.125 0
2.375 0.125 0
2.375 0 0
2.5 0 0
2.375 0.125 0
2.5 0.125 0
2.25 0.125 0
2.375 0.125 0
2.25 0.25 0
2.375 0.25 0
2.375 0.125 0
2.5 0.125 0
2.375 0.25 0
2.5 0.25 0
2 0.25 0
2.125 0.25 0
2 0.375 0
2.125 0.375 0
2.125 0.25 0
2.25 0.25 0
2.125 0.375 0
2.25 0.375 0
2 0.375 0
2.125 0.375 0
2 0.5 0
2.125 0.5 0
2.125 0.375 0
2.25 0.375 0
2.125 0.5 0
2.25 0.5 0
2.25 0.25 0
2.375 0.25 0
2.25 0.375 0
2.375 0.375 0
2.375 0.25 0
[...]
POINT_DATA 1536
VECTORS displacements double
37.9456 -44.3135 0
38.6671 -39.6552 0
33.4823 -44.5273 0
34.0213 -39.8588 0
38.6671 -39.6552 0
39.3593 -34.8169 0
34.0213 -39.8588 0
34.5336 -35.0113 0
33.4823 -44.5273 0
34.0213 -39.8588 0
29.4422 -44.6724 0
29.8014 -39.9943 0
34.0213 -39.8588 0
34.5336 -35.0113 0
29.8014 -39.9943 0
30.1382 -35.1342 0
39.3593 -34.8169 0
40.0249 -29.8049 0
34.5336 -35.0113 0
35.0211 -29.9886 0
40.0249 -29.8049 0
40.6769 -24.6174 0
35.0211 -29.9886 0
35.4782 -24.797 0
34.5336 -35.0113 0
35.0211 -29.9886 0
30.1382 -35.1342 0
30.4432 -30.0994 0
35.0211 -29.9886 0
35.4782 -24.797 0
30.4432 -30.0994 0
30.7213 -24.8842 0
29.4422 -44.6724 0
29.8014 -39.9943 0
25.5809 -44.7436 0
25.7572 -40.0566 0
29.8014 -39.9943 0
30.1382 -35.1342 0
25.7572 -40.0566 0
25.9118 -35.1842 0
25.5809 -44.7436 0
25.7572 -40.0566 0
21.7961 -44.7425 0
21.7903 -40.0452 0
25.7572 -40.0566 0
25.9118 -35.1842 0
21.7903 -40.0452 0
21.7697 -35.1633 0
30.1382 -35.1342 0
30.4432 -30.0994 0
25.9118 -35.1842 0
26.0475 -30.1299 0
30.4432 -30.0994 0
30.7213 -24.8842 0
26.0475 -30.1299 0
26.1384 -24.9032 0
25.9118 -35.1842 0
26.0475 -30.1299 0
21.7697 -35.1633 0
21.7248 -30.0996 0
26.0475 -30.1299 0
26.1384 -24.9032 0
21.7248 -30.0996 0
21.6698 -24.8552 0
40.6769 -24.6174 0
41.3239 -19.2522 0
35.4782 -24.797 0
35.9086 -19.4118 0
41.3239 -19.2522 0
42.0319 -13.629 0
35.9086 -19.4118 0
36.2597 -13.8249 0
35.4782 -24.797 0
35.9086 -19.4118 0
30.7213 -24.8842 0
30.9384 -19.4849 0
35.9086 -19.4118 0
36.2597 -13.8249 0
30.9384 -19.4849 0
31.0916 -13.8247 0
42.0319 -13.629 0
42.8417 -7.72986 0
36.2597 -13.8249 0
36.4109 -7.65438 0
42.8417 -7.72986 0
43.2776 0 0
36.4109 -7.65438 0
36.5942 -1.39364 0
36.2597 -13.8249 0
36.4109 -7.65438 0
31.0916 -13.8247 0
31.0865 -7.91291 0
36.4109 -7.65438 0
36.5942 -1.39364 0
31.0865 -7.91291 0
31.2319 -2.35481 0
30.7213 -24.8842 0
30.9384 -19.4849 0
26.1384 -24.9032 0
26.2026 -19.4796 0
30.9384 -19.4849 0
31.0916 -13.8247 0
26.2026 -19.4796 0
26.1501 -13.898 0
26.1384 -24.9032 0
26.2026 -19.4796 0
21.6698 -24.8552 0
21.5534 -19.4951 0
26.2026 -19.4796 0
26.1501 -13.898 0
21.5534 -19.4951 0
21.4462 -14.0681 0
31.0916 -13.8247 0
31.0865 -7.91291 0
26.1501 -13.898 0
26.1526 -8.33047 0
31.0865 -7.91291 0
31.2319 -2.35481 0
26.1526 -8.33047 0
26.2566 -3.00375 0
26.1501 -13.898 0
26.1526 -8.33047 0
21.4462 -14.0681 0
21.4154 -8.67783 0
26.1526 -8.33047 0
26.2566 -3.00375 0
21.4154 -8.67783 0
21.4933 -3.55284 0
21.7961 -44.7425 0
21.7903 -40.0452 0
18.0103 -44.6704 0
17.817 -39.9698 0
21.7903 -40.0452 0
21.7697 -35.1633 0
17.817 -39.9698 0
17.6224 -35.0772 0
18.0103 -44.6704 0
17.817 -39.9698 0
14.1351 -44.5328 0
13.76 -39.8359 0
17.817 -39.9698 0
17.6224 -35.0772 0
13.76 -39.8359 0
13.3897 -34.9649 0
21.7697 -35.1633 0
21.7248 -30.0996 0
17.6224 -35.0772 0
17.42 -30.0176 0
21.7248 -30.0996 0
21.6698 -24.8552 0
17.42 -30.0176 0
17.1968 -24.826 0
17.6224 -35.0772 0
17.42 -30.0176 0
13.3897 -34.9649 0
13.0222 -29.9367 0
17.42 -30.0176 0
17.1968 -24.826 0
13.0222 -29.9367 0
12.6926 -24.7892 0
14.1351 -44.5328 0
13.76 -39.8359 0
10.0584 -44.3559 0
9.50216 -39.6723 0
13.76 -39.8359 0
13.3897 -34.9649 0
9.50216 -39.6723 0
8.97644 -34.8282 0
10.0584 -44.3559 0
9.50216 -39.6723 0
5.6359 -44.1419 0
4.97027 -39.474 0
9.50216 -39.6723 0
8.97644 -34.8282 0
4.97027 -39.474 0
4.38423 -34.6697 0
13.3897 -34.9649 0
13.0222 -29.9367 0
8.97644 -34.8282 0
8.52223 -29.8335 0
13.0222 -29.9367 0
12.6926 -24.7892 0
8.52223 -29.8335 0
8.1626 -24.7508 0
8.97644 -34.8282 0
8.52223 -29.8335 0
4.38423 -34.6697 0
3.85424 -29.7252 0
8.52223 -29.8335 0
8.1626 -24.7508 0
3.85424 -29.7252 0
3.35919 -24.6461 0
21.6698 -24.8552 0
21.5534 -19.4951 0
17.1968 -24.826 0
16.9853 -19.5381 0
21.5534 -19.4951 0
21.4462 -14.0681 0
16.9853 -19.5381 0
16.8489 -14.2232 0
17.1968 -24.826 0
16.9853 -19.5381 0
12.6926 -24.7892 0
12.454 -19.5764 0
16.9853 -19.5381 0
16.8489 -14.2232 0
12.454 -19.5764 0
12.2854 -14.3342 0
21.4462 -14.0681 0
21.4154 -8.67783 0
16.8489 -14.2232 0
16.798 -8.9596 0
21.4154 -8.67783 0
21.4933 -3.55284 0
16.798 -8.9596 0
16.862 -3.99373 0
16.8489 -14.2232 0
16.798 -8.9596 0
12.2854 -14.3342 0
12.2168 -9.16248 0
16.798 -8.9596 0
16.862 -3.99373 0
12.2168 -9.16248 0
12.2414 -4.26239 0
12.6926 -24.7892 0
12.454 -19.5764 0
8.1626 -24.7508 0
7.85597 -19.5712 0
12.454 -19.5764 0
12.2854 -14.3342 0
7.85597 -19.5712 0
7.63673 -14.3671 0
8.1626 -24.7508 0
7.85597 -19.5712 0
3.35919 -24.6461 0
2.96662 -19.4926 0
7.85597 -19.5712 0
7.63673 -14.3671 0
2.96662 -19.4926 0
2.72561 -14.3348 0
12.2854 -14.3342 0
12.2168 -9.16248 0
7.63673 -14.3671 0
7.53028 -9.26032 0
12.2168 -9.16248 0
12.2414 -4.26239 0
7.53028 -9.26032 0
7.5122 -4.34962 0
7.63673 -14.3671 0
7.53028 -9.26032 0
2.72561 -14.3348 0
2.64524 -9.27629 0
7.53028 -9.26032 0
7.5122 -4.34962 0
2.64524 -9.27629 0
2.64 -4.35528 0
30.9585 -74.1422 0
31.9591 -71.2318 0
28.2765 -74.4359 0
29.0094 -71.5149 0
31.9591 -71.2318 0
32.9204 -68.0617 0
29.0094 -71.5149 0
29.72 -68.3345 0
28.2765 -74.4359 0
29.0094 -71.5149 0
25.9746 -74.6339 0
26.4424 -71.7062 0
29.0094 -71.5149 0
29.72 -68.3345 0
26.4424 -71.7062 0
26.9052 -68.5192 0
32.9204 -68.0617 0
33.8441 -64.6477 0
29.72 -68.3345 0
30.4075 -64.9105 0
33.8441 -64.6477 0
34.7322 -61.003 0
30.4075 -64.9105 0
31.0713 -61.256 0
29.72 -68.3345 0
30.4075 -64.9105 0
26.9052 -68.5192 0
27.3612 -65.0884 0
30.4075 -64.9105 0
31.0713 -61.256 0
27.3612 -65.0884 0
27.8076 -61.4273 0
25.9746 -74.6339 0
26.4424 -71.7062 0
23.8977 -74.7351 0
24.097 -71.8035 0
26.4424 -71.7062 0
26.9052 -68.5192 0
24.097 -71.8035 0
24.3056 -68.6142 0
23.8977 -74.7351 0
24.097 -71.8035 0
21.8948 -74.7421 0
21.8349 -71.8085 0
24.097 -71.8035 0
24.3056 -68.6142 0
21.8349 -71.8085 0
21.7948 -68.6207 0
26.9052 -68.5192 0
27.3612 -65.0884 0
24.3056 -68.6142 0
24.5222 -65.1809 0
27.3612 -65.0884 0
27.8076 -61.4273 0
24.5222 -65.1809 0
24.7436 -61.5168 0
24.3056 -68.6142 0
24.5222 -65.1809 0
21.7948 -68.6207 0
21.7737 -65.1897 0
24.5222 -65.1809 0
24.7436 -61.5168 0
21.7737 -65.1897 0
21.7684 -61.5269 0
34.7322 -61.003 0
35.5858 -57.1382 0
31.0713 -61.256 0
31.7112 -57.3816 0
35.5858 -57.1382 0
36.4056 -53.0628 0
31.7112 -57.3816 0
32.3268 -53.2965 0
31.0713 -61.256 0
31.7112 -57.3816 0
27.8076 -61.4273 0
28.2413 -57.5471 0
31.7112 -57.3816 0
32.3268 -53.2965 0
28.2413 -57.5471 0
28.6599 -53.4562 0
36.4056 -53.0628 0
37.192 -48.7853 0
32.3268 -53.2965 0
32.9173 -49.0091 0
37.192 -48.7853 0
37.9456 -44.3135 0
32.9173 -49.0091 0
33.4823 -44.5273 0
32.3268 -53.2965 0
32.9173 -49.0091 0
28.6599 -53.4562 0
29.0612 -49.162 0
32.9173 -49.0091 0
33.4823 -44.5273 0
29.0612 -49.162 0
29.4422 -44.6724 0
27.8076 -61.4273 0
28.2413 -57.5471 0
24.7436 -61.5168 0
24.965 -57.6331 0
28.2413 -57.5471 0
28.6599 -53.4562 0
24.965 -57.6331 0
25.1809 -53.539 0
24.7436 -61.5168 0
24.965 -57.6331 0
21.7684 -61.5269 0
21.7741 -57.6424 0
24.965 -57.6331 0
25.1809 -53.539 0
21.7741 -57.6424 0
21.7849 -53.5455 0
28.6599 -53.4562 0
29.0612 -49.162 0
25.1809 -53.539 0
25.3871 -49.2406 0
29.0612 -49.162 0
29.4422 -44.6724 0
25.3871 -49.2406 0
25.5809 -44.7436 0
25.1809 -53.539 0
25.3871 -49.2406 0
21.7849 -53.5455 0
21.7939 -49.244 0
25.3871 -49.2406 0
25.5809 -44.7436 0
21.7939 -49.244 0
21.7961 -44.7425 0
21.8948 -74.7421 0
21.8349 -71.8085 0
19.8606 -74.6607 0
19.5565 -71.7271 0
21.8349 -71.8085 0
21.7948 -68.6207 0
19.5565 -71.7271 0
19.2789 -68.5445 0
19.8606 -74.6607 0
19.5565 -71.7271 0
17.7048 -74.499 0
17.1734 -71.5689 0
19.5565 -71.7271 0
19.2789 -68.5445 0
17.1734 -71.5689 0
16.6706 -68.395 0
21.7948 -68.6207 0
21.7737 -65.1897 0
19.2789 -68.5445 0
19.0271 -65.1204 0
21.7737 -65.1897 0
21.7684 -61.5269 0
19.0271 -65.1204 0
18.7976 -61.4631 0
19.2789 -68.5445 0
19.0271 -65.1204 0
16.6706 -68.395 0
16.1949 -64.981 0
19.0271 -65.1204 0
18.7976 -61.4631 0
16.1949 -64.981 0
15.744 -61.3319 0
17.7048 -74.499 0
17.1734 -71.5689 0
15.313 -74.2706 0
14.5688 -71.348 0
17.1734 -71.5689 0
16.6706 -68.395 0
14.5688 -71.348 0
13.8497 -68.184 0
15.313 -74.2706 0
14.5688 -71.348 0
12.5828 -73.9787 0
11.6043 -71.0642 0
14.5688 -71.348 0
13.8497 -68.184 0
11.6043 -71.0642 0
10.6513 -67.909 0
16.6706 -68.395 0
16.1949 -64.981 0
13.8497 -68.184 0
13.1561 -64.78 0
16.1949 -64.981 0
15.744 -61.3319 0
13.1561 -64.78 0
12.4882 -61.1395 0
13.8497 -68.184 0
13.1561 -64.78 0
10.6513 -67.909 0
9.72641 -64.5143 0
13.1561 -64.78 0
12.4882 -61.1395 0
9.72641 -64.5143 0
8.83226 -60.8834 0
21.7684 -61.5269 0
21.7741 -57.6424 0
18.7976 -61.4631 0
18.5861 -57.5807 0
21.7741 -57.6424 0
21.7849 -53.5455 0
18.5861 -57.5807 0
18.3883 -53.4818 0
18.7976 -61.4631 0
18.5861 -57.5807 0
15.744 -61.3319 0
15.3155 -57.4539 0
18.5861 -57.5807 0
18.3883 -53.4818 0
15.3155 -57.4539 0
14.907 -53.3546 0
21.7849 -53.5455 0
21.7939 -49.244 0
18.3883 -53.4818 0
18.1988 -49.1754 0
21.7939 -49.244 0
21.7961 -44.7425 0
18.1988 -49.1754 0
18.0103 -44.6704 0
18.3883 -53.4818 0
18.1988 -49.1754 0
14.907 -53.3546 0
14.5153 -49.0436 0
18.1988 -49.1754 0
18.0103 -44.6704 0
14.5153 -49.0436 0
14.1351 -44.5328 0
15.744 -61.3319 0
15.3155 -57.4539 0
12.4882 -61.1395 0
11.8458 -57.2678 0
15.3155 -57.4539 0
14.907 -53.3546 0
11.8458 -57.2678 0
11.2281 -53.1721 0
12.4882 -61.1395 0
11.8458 -57.2678 0
8.83226 -60.8834 0
7.97154 -57.0215 0
11.8458 -57.2678 0
11.2281 -53.1721 0
7.97154 -57.0215 0
7.14775 -52.9359 0
14.907 -53.3546 0
14.5153 -49.0436 0
11.2281 -53.1721 0
10.6333 -48.8631 0
14.5153 -49.0436 0
14.1351 -44.5328 0
10.6333 -48.8631 0
10.0584 -44.3559 0
11.2281 -53.1721 0
10.6333 -48.8631 0
7.14775 -52.9359 0
6.36627 -48.6373 0
10.6333 -48.8631 0
10.0584 -44.3559 0
6.36627 -48.6373 0
5.6359 -44.1419 0
21.6388 -85.9454 0
22.8979 -85.7432 0
21.6388 -86.3071 0
22.5194 -86.1031 0
22.8979 -85.7432 0
24.1437 -85.1431 0
22.5194 -86.1031 0
23.3959 -85.4977 0
21.6388 -86.3071 0
22.5194 -86.1031 0
21.6388 -86.6629 0
22.2829 -86.4451 0
22.5194 -86.1031 0
23.3959 -85.4977 0
22.2829 -86.4451 0
22.8969 -85.8068 0
24.1437 -85.1431 0
25.3655 -84.1615 0
23.3959 -85.4977 0
24.2629 -84.5081 0
25.3655 -84.1615 0
26.557 -82.8179 0
24.2629 -84.5081 0
25.1129 -83.1548 0
23.3959 -85.4977 0
24.2629 -84.5081 0
22.8969 -85.8068 0
23.4703 -84.784 0
24.2629 -84.5081 0
25.1129 -83.1548 0
23.4703 -84.784 0
24.0099 -83.4067 0
21.6388 -86.6629 0
22.2829 -86.4451 0
21.6388 -87.1115 0
22.0974 -86.871 0
22.2829 -86.4451 0
22.8969 -85.8068 0
22.0974 -86.871 0
22.5055 -86.1737 0
21.6388 -87.1115 0
22.0974 -86.871 0
21.6388 -87.5698 0
21.9 -87.3023 0
22.0974 -86.871 0
22.5055 -86.1737 0
21.9 -87.3023 0
22.0944 -86.532 0
22.8969 -85.8068 0
23.4703 -84.784 0
22.5055 -86.1737 0
22.8397 -85.0758 0
23.4703 -84.784 0
24.0099 -83.4067 0
22.8397 -85.0758 0
23.1084 -83.6265 0
22.5055 -86.1737 0
22.8397 -85.0758 0
22.0944 -86.532 0
22.1922 -85.3379 0
22.8397 -85.0758 0
23.1084 -83.6265 0
22.1922 -85.3379 0
22.2017 -83.7968 0
26.557 -82.8179 0
27.7147 -81.129 0
25.1129 -83.1548 0
25.9402 -81.4554 0
27.7147 -81.129 0
28.8355 -79.1093 0
25.9402 -81.4554 0
26.743 -79.4248 0
25.1129 -83.1548 0
25.9402 -81.4554 0
24.0099 -83.4067 0
24.5258 -81.6893 0
25.9402 -81.4554 0
26.743 -79.4248 0
24.5258 -81.6893 0
25.0213 -79.6449 0
28.8355 -79.1093 0
29.9173 -76.7745 0
26.743 -79.4248 0
27.5213 -77.079 0
29.9173 -76.7745 0
30.9585 -74.1422 0
27.5213 -77.079 0
28.2765 -74.4359 0
26.743 -79.4248 0
27.5213 -77.079 0
25.0213 -79.6449 0
25.5015 -77.2861 0
27.5213 -77.079 0
28.2765 -74.4359 0
25.5015 -77.2861 0
25.9746 -74.6339 0
24.0099 -83.4067 0
24.5258 -81.6893 0
23.1084 -83.6265 0
23.3288 -81.8559 0
24.5258 -81.6893 0
25.0213 -79.6449 0
23.3288 -81.8559 0
23.5199 -79.7735 0
23.1084 -83.6265 0
23.3288 -81.8559 0
22.2017 -83.7968 0
22.1459 -81.9448 0
23.3288 -81.8559 0
23.5199 -79.7735 0
22.1459 -81.9448 0
22.0609 -79.8142 0
25.0213 -79.6449 0
25.5015 -77.2861 0
23.5199 -79.7735 0
23.7066 -77.3959 0
25.5015 -77.2861 0
25.9746 -74.6339 0
23.7066 -77.3959 0
23.8977 -74.7351 0
23.5199 -79.7735 0
23.7066 -77.3959 0
22.0609 -79.8142 0
21.9723 -77.4124 0
23.7066 -77.3959 0
23.8977 -74.7351 0
21.9723 -77.4124 0
21.8948 -74.7421 0
21.6388 -87.5698 0
21.9 -87.3023 0
21.6388 -88.0251 0
21.6795 -87.7138 0
21.9 -87.3023 0
22.0944 -86.532 0
21.6795 -87.7138 0
21.63 -86.8332 0
21.6388 -88.0251 0
21.6795 -87.7138 0
21.6388 -88.4647 0
21.3922 -88.0752 0
21.6795 -87.7138 0
21.63 -86.8332 0
21.3922 -88.0752 0
21.0543 -87.0193 0
22.0944 -86.532 0
22.1922 -85.3379 0
21.63 -86.8332 0
21.4628 -85.518 0
22.1922 -85.3379 0
22.2017 -83.7968 0
21.4628 -85.518 0
21.1979 -83.8652 0
21.63 -86.8332 0
21.4628 -85.518 0
21.0543 -87.0193 0
20.5776 -85.546 0
21.4628 -85.518 0
21.1979 -83.8652 0
20.5776 -85.546 0
20.0177 -83.8064 0
21.6388 -88.4647 0
21.3922 -88.0752 0
21.6388 -88.8595 0
21.0212 -88.2613 0
21.3922 -88.0752 0
21.0543 -87.0193 0
21.0212 -88.2613 0
20.2389 -86.9527 0
21.6388 -88.8595 0
21.0212 -88.2613 0
21.6388 -88.8612 0
20.1925 -88.1118 0
21.0212 -88.2613 0
20.2389 -86.9527 0
20.1925 -88.1118 0
18.9311 -86.6254 0
21.0543 -87.0193 0
20.5776 -85.546 0
20.2389 -86.9527 0
19.375 -85.3792 0
20.5776 -85.546 0
20.0177 -83.8064 0
19.375 -85.3792 0
18.5221 -83.6045 0
20.2389 -86.9527 0
19.375 -85.3792 0
18.9311 -86.6254 0
17.7976 -85.0606 0
19.375 -85.3792 0
18.5221 -83.6045 0
17.7976 -85.0606 0
16.7098 -83.2872 0
22.2017 -83.7968 0
22.1459 -81.9448 0
21.1979 -83.8652 0
20.8755 -81.9415 0
22.1459 -81.9448 0
22.0609 -79.8142 0
20.8755 -81.9415 0
20.5315 -79.766 0
21.1979 -83.8652 0
20.8755 -81.9415 0
20.0177 -83.8064 0
19.4317 -81.832 0
20.8755 -81.9415 0
20.5315 -79.766 0
19.4317 -81.832 0
18.8422 -79.6261 0
22.0609 -79.8142 0
21.9723 -77.4124 0
20.5315 -79.766 0
20.1884 -77.3403 0
21.9723 -77.4124 0
21.8948 -74.7421 0
20.1884 -77.3403 0
19.8606 -74.6607 0
20.5315 -79.766 0
20.1884 -77.3403 0
18.8422 -79.6261 0
18.2631 -77.1839 0
20.1884 -77.3403 0
19.8606 -74.6607 0
18.2631 -77.1839 0
17.7048 -74.499 0
20.0177 -83.8064 0
19.4317 -81.832 0
18.5221 -83.6045 0
17.6873 -81.6131 0
19.4317 -81.832 0
18.8422 -79.6261 0
17.6873 -81.6131 0
16.8733 -79.3985 0
18.5221 -83.6045 0
17.6873 -81.6131 0
16.7098 -83.2872 0
15.6479 -81.3013 0
17.6873 -81.6131 0
16.8733 -79.3985 0
15.6479 -81.3013 0
14.6063 -79.0925 0
18.8422 -79.6261 0
18.2631 -77.1839 0
16.8733 -79.3985 0
16.0815 -76.9529 0
18.2631 -77.1839 0
17.7048 -74.499 0
16.0815 -76.9529 0
15.313 -74.2706 0
16.8733 -79.3985 0
16.0815 -76.9529 0
14.6063 -79.0925 0
13.5842 -76.6536 0
16.0815 -76.9529 0
15.313 -74.2706 0
13.5842 -76.6536 0
12.5828 -73.9787 0
12.3191 -74.1422 0
13.3603 -76.7745 0
15.0011 -74.4359 0
15.7563 -77.079 0
13.3603 -76.7745 0
14.4421 -79.1093 0
15.7563 -77.079 0
16.5346 -79.4248 0
15.0011 -74.4359 0
15.7563 -77.079 0
17.303 -74.6339 0
17.7761 -77.2861 0
15.7563 -77.079 0
16.5346 -79.4248 0
17.7761 -77.2861 0
18.2563 -79.6449 0
14.4421 -79.1093 0
15.5629 -81.129 0
16.5346 -79.4248 0
17.3375 -81.4554 0
15.5629 -81.129 0
16.7206 -82.8179 0
17.3375 -81.4554 0
18.1647 -83.1548 0
16.5346 -79.4248 0
17.3375 -81.4554 0
18.2563 -79.6449 0
18.7518 -81.6893 0
17.3375 -81.4554 0
18.1647 -83.1548 0
18.7518 -81.6893 0
19.2677 -83.4067 0
17.303 -74.6339 0
17.7761 -77.2861 0
19.3799 -74.7351 0
19.571 -77.3959 0
17.7761 -77.2861 0
18.2563 -79.6449 0
19.571 -77.3959 0
19.7577 -79.7735 0
19.3799 -74.7351 0
19.571 -77.3959 0
21.3828 -74.7421 0
21.3053 -77.4124 0
19.571 -77.3959 0
19.7577 -79.7735 0
21.3053 -77.4124 0
21.2167 -79.8142 0
18.2563 -79.6449 0
18.7518 -81.6893 0
19.7577 -79.7735 0
19.9488 -81.8559 0
18.7518 -81.6893 0
19.2677 -83.4067 0
19.9488 -81.8559 0
20.1692 -83.6265 0
19.7577 -79.7735 0
19.9488 -81.8559 0
21.2167 -79.8142 0
21.1317 -81.9448 0
19.9488 -81.8559 0
20.1692 -83.6265 0
21.1317 -81.9448 0
21.0759 -83.7968 0
16.7206 -82.8179 0
17.9121 -84.1615 0
18.1647 -83.1548 0
19.0147 -84.5081 0
17.9121 -84.1615 0
19.1339 -85.1431 0
19.0147 -84.5081 0
19.8817 -85.4977 0
18.1647 -83.1548 0
19.0147 -84.5081 0
19.2677 -83.4067 0
19.8073 -84.784 0
19.0147 -84.5081 0
19.8817 -85.4977 0
19.8073 -84.784 0
20.3807 -85.8068 0
19.1339 -85.1431 0
20.3797 -85.7432 0
19.8817 -85.4977 0
20.7583 -86.1031 0
20.3797 -85.7432 0
21.6388 -85.9454 0
20.7583 -86.1031 0
21.6388 -86.3071 0
19.8817 -85.4977 0
20.7583 -86.1031 0
20.3807 -85.8068 0
20.9947 -86.4451 0
20.7583 -86.1031 0
21.6388 -86.3071 0
20.9947 -86.4451 0
21.6388 -86.6629 0
19.2677 -83.4067 0
19.8073 -84.784 0
20.1692 -83.6265 0
20.4379 -85.0758 0
19.8073 -84.784 0
20.3807 -85.8068 0
20.4379 -85.0758 0
20.7721 -86.1737 0
20.1692 -83.6265 0
20.4379 -85.0758 0
21.0759 -83.7968 0
21.0855 -85.3379 0
20.4379 -85.0758 0
20.7721 -86.1737 0
21.0855 -85.3379 0
21.1832 -86.532 0
20.3807 -85.8068 0
20.9947 -86.4451 0
20.7721 -86.1737 0
21.1802 -86.871 0
20.9947 -86.4451 0
21.6388 -86.6629 0
21.1802 -86.871 0
21.6388 -87.1115 0
20.7721 -86.1737 0
21.1802 -86.871 0
21.1832 -86.532 0
21.3776 -87.3023 0
21.1802 -86.871 0
21.6388 -87.1115 0
21.3776 -87.3023 0
21.6388 -87.5698 0
21.3828 -74.7421 0
21.3053 -77.4124 0
23.417 -74.6607 0
23.0892 -77.3403 0
21.3053 -77.4124 0
21.2167 -79.8142 0
23.0892 -77.3403 0
22.7462 -79.766 0
23.417 -74.6607 0
23.0892 -77.3403 0
25.5728 -74.499 0
25.0145 -77.1839 0
23.0892 -77.3403 0
22.7462 -79.766 0
25.0145 -77.1839 0
24.4355 -79.6261 0
21.2167 -79.8142 0
21.1317 -81.9448 0
22.7462 -79.766 0
22.4022 -81.9415 0
21.1317 -81.9448 0
21.0759 -83.7968 0
22.4022 -81.9415 0
22.0798 -83.8652 0
22.7462 -79.766 0
22.4022 -81.9415 0
24.4355 -79.6261 0
23.8459 -81.832 0
22.4022 -81.9415 0
22.0798 -83.8652 0
23.8459 -81.832 0
23.2599 -83.8064 0
25.5728 -74.499 0
25.0145 -77.1839 0
27.9647 -74.2706 0
27.1961 -76.9529 0
25.0145 -77.1839 0
24.4355 -79.6261 0
27.1961 -76.9529 0
26.4043 -79.3985 0
27.9647 -74.2706 0
27.1961 -76.9529 0
30.6948 -73.9787 0
29.6934 -76.6536 0
27.1961 -76.9529 0
26.4043 -79.3985 0
29.6934 -76.6536 0
28.6713 -79.0925 0
24.4355 -79.6261 0
23.8459 -81.832 0
26.4043 -79.3985 0
25.5903 -81.6131 0
23.8459 -81.832 0
23.2599 -83.8064 0
25.5903 -81.6131 0
24.7555 -83.6045 0
26.4043 -79.3985 0
25.5903 -81.6131 0
28.6713 -79.0925 0
27.6298 -81.3013 0
25.5903 -81.6131 0
24.7555 -83.6045 0
27.6298 -81.3013 0
26.5678 -83.2872 0
21.0759 -83.7968 0
21.0855 -85.3379 0
22.0798 -83.8652 0
21.8148 -85.518 0
21.0855 -85.3379 0
21.1832 -86.532 0
21.8148 -85.518 0
21.6476 -86.8332 0
22.0798 -83.8652 0
21.8148 -85.518 0
23.2599 -83.8064 0
22.7 -85.546 0
21.8148 -85.518 0
21.6476 -86.8332 0
22.7 -85.546 0
22.2233 -87.0193 0
21.1832 -86.532 0
21.3776 -87.3023 0
21.6476 -86.8332 0
21.5981 -87.7138 0
21.3776 -87.3023 0
21.6388 -87.5698 0
21.5981 -87.7138 0
21.6388 -88.0251 0
21.6476 -86.8332 0
21.5981 -87.7138 0
22.2233 -87.0193 0
21.8854 -88.0752 0
21.5981 -87.7138 0
21.6388 -88.0251 0
21.8854 -88.0752 0
21.6388 -88.4647 0
23.2599 -83.8064 0
22.7 -85.546 0
24.7555 -83.6045 0
23.9026 -85.3792 0
22.7 -85.546 0
22.2233 -87.0193 0
23.9026 -85.3792 0
23.0387 -86.9527 0
24.7555 -83.6045 0
23.9026 -85.3792 0
26.5678 -83.2872 0
25.48 -85.0606 0
23.9026 -85.3792 0
23.0387 -86.9527 0
25.48 -85.0606 0
24.3465 -86.6254 0
22.2233 -87.0193 0
21.8854 -88.0752 0
23.0387 -86.9527 0
22.2564 -88.2613 0
21.8854 -88.0752 0
21.6388 -88.4647 0
22.2564 -88.2613 0
21.6388 -88.8595 0
23.0387 -86.9527 0
22.2564 -88.2613 0
24.3465 -86.6254 0
23.0851 -88.1118 0
22.2564 -88.2613 0
21.6388 -88.8595 0
23.0851 -88.1118 0
21.6388 -88.8612 0
5.33204 -44.3135 0
6.08559 -48.7853 0
9.79531 -44.5273 0
10.3603 -49.0091 0
6.08559 -48.7853 0
6.87205 -53.0628 0
10.3603 -49.0091 0
10.9508 -53.2965 0
9.79531 -44.5273 0
10.3603 -49.0091 0
13.8354 -44.6724 0
14.2164 -49.162 0
10.3603 -49.0091 0
10.9508 -53.2965 0
14.2164 -49.162 0
14.6177 -53.4562 0
6.87205 -53.0628 0
7.69182 -57.1382 0
10.9508 -53.2965 0
11.5664 -57.3816 0
7.69182 -57.1382 0
8.54541 -61.003 0
11.5664 -57.3816 0
12.2063 -61.256 0
10.9508 -53.2965 0
11.5664 -57.3816 0
14.6177 -53.4562 0
15.0363 -57.5471 0
11.5664 -57.3816 0
12.2063 -61.256 0
15.0363 -57.5471 0
15.47 -61.4273 0
13.8354 -44.6724 0
14.2164 -49.162 0
17.6967 -44.7436 0
17.8905 -49.2406 0
14.2164 -49.162 0
14.6177 -53.4562 0
17.8905 -49.2406 0
18.0967 -53.539 0
17.6967 -44.7436 0