# vtk DataFile Version 3.0
#This file was generated by the deal.II library on 2020/9/2 at 8:41:39
ASCII
DATASET UNSTRUCTURED_GRID

POINTS 1536 double
5 0 0
5.125 0 0
5 0.125 0
5.125 0.125 0
5.125 0 0
5.25 0 0
5.125 0.125 0
5.25 0.125 0
5 0.125 0
5.125 0.125 0
5 0.25 0
5.125 0.25 0
5.125 0.125 0
5.25 0.125 0
5.125 0.25 0
5.25 0.25 0
5.25 0 0
5.375 0 0
5.25 0.125 0
5.375 0.125 0
5.375 0 0
5.5 0 0
5.375 0.125 0
5.5 0.125 0
5.25 0.125 0
5.375 0.125 0
5.25 0.25 0
5.375 0.25 0
5.375 0.125 0
5.5 0.125 0
5.375 0.25 0
5.5 0.25 0
5 0.25 0
5.125 0.25 0
5 0.375 0
5.125 0.375 0
5.125 0.25 0
5.25 0.25 0
5.125 0.375 0
5.25 0.375 0
5 0.375 0
5.125 0.375 0
5 0.5 0
5.125 0.5 0
5.125 0.375 0
5.25 0.375 0
5.125 0.5 0
5.25 0.5 0
5.25 0.25 0
5.375 0.25 0
5.25 0.375 0
5.375 0.375 0
5.375 0.25 0
5.5 0.25 0
5.375 0.375 0
5.5 0.375 0
5.25 0.375 0
5.375 0.375 0
5.25 0.5 0
5.375 0.5 0
5.375 0.375 0
5.5 0.375 0
5.375 0.5 0
5.5 0.5 0
5.5 0 0
5.625 0 0
5.5 0.125 0
5.625 0.125 0
5.625 0 0
5.75 0 0
5.625 0.125 0
5.75 0.125 0
5.5 0.125 0
5.625 0.125 0
5.5 0.25 0
5.625 0.25 0
5.625 0.125 0
5.75 0.125 0
5.625 0.25 0
5.75 0.25 0
5.75 0 0
5.875 0 0
5.75 0.125 0
5.875 0.125 0
5.875 0 0
6 0 0
5.875 0.125 0
6 0.125 0
5.75 0.125 0
5.875 0.125 0
5.75 0.25 0
5.875 0.25 0
5.875 0.125 0
6 0.125 0
5.875 0.25 0
6 0.25 0
5.5 0.25 0
5.625 0.25 0
5.5 0.375 0
5.625 0.375 0
5.625 0.25 0
5.75 0.25 0
5.625 0.375 0
5.75 0.375 0
5.5 0.375 0
5.625 0.375 0
5.5 0.5 0
5.625 0.5 0
5.625 0.375 0
5.75 0.375 0
5.625 0.5 0
5.75 0.5 0
5.75 0.25 0
5.875 0.25 0
5.75 0.375 0
5.875 0.375 0
5.875 0.25 0
6 0.25 0
5.875 0.375 0
6 0.375 0
5.75 0.375 0
5.875 0.375 0
5.75 0.5 0
5.875 0.5 0
5.875 0.375 0
6 0.375 0
5.875 0.5 0
6 0.5 0
5 0.5 0
5.125 0.5 0
5 0.625 0
5.125 0.625 0
5.125 0.5 0
5.25 0.5 0
5.125 0.625 0
5.25 0.625 0
5 0.625 0
5.125 0.625 0
5 0.75 0
5.125 0.75 0
5.125 0.625 0
5.25 0.625 0
5.125 0.75 0
5.25 0.75 0
5.25 0.5 0
5.375 0.5 0
5.25 0.625 0
5.375 0.625 0
5.375 0.5 0
5.5 0.5 0
5.375 0.625 0
5.5 0.625 0
5.25 0.625 0
5.375 0.625 0
5.25 0.75 0
5.375 0.75 0
5.375 0.625 0
5.5 0.625 0
5.375 0.75 0
5.5 0.75 0
5 0.75 0
5.125 0.75 0
5 0.875 0
5.125 0.875 0
5.125 0.75 0
5.25 0.75 0
5.125 0.875 0
5.25 0.875 0
5 0.875 0
5.125 0.875 0
5 1 0
5.125 1 0
5.125 0.875 0
5.25 0.875 0
5.125 1 0
5.25 1 0
5.25 0.75 0
5.375 0.75 0
5.25 0.875 0
5.375 0.875 0
5.375 0.75 0
5.5 0.75 0
5.375 0.875 0
5.5 0.875 0
5.25 0.875 0
5.375 0.875 0
5.25 1 0
5.375 1 0
5.375 0.875 0
5.5 0.875 0
5.375 1 0
5.5 1 0
5.5 0.5 0
5.625 0.5 0
5.5 0.625 0
5.625 0.625 0
5.625 0.5 0
5.75 0.5 0
5.625 0.625 0
5.75 0.625 0
5.5 0.625 0
5.625 0.625 0
5.5 0.75 0
5.625 0.75 0
5.625 0.625 0
5.75 0.625 0
5.625 0.75 0
5.75 0.75 0
5.75 0.5 0
5.875 0.5 0
5.75 0.625 0
5.875 0.625 0
5.875 0.5 0
6 0.5 0
5.875 0.625 0
6 0.625 0
5.75 0.625 0
5.875 0.625 0
5.75 0.75 0
5.875 0.75 0
5.875 0.625 0
6 0.625 0
5.875 0.75 0
6 0.75 0
5.5 0.75 0
5.625 0.75 0
5.5 0.875 0
5.625 0.875 0
5.625 0.75 0
5.75 0.75 0
5.625 0.875 0
5.75 0.875 0
5.5 0.875 0
5.625 0.875 0
5.5 1 0
5.625 1 0
5.625 0.875 0
5.75 0.875 0
5.625 1 0
5.75 1 0
5.75 0.75 0
5.875 0.75 0
5.75 0.875 0
5.875 0.875 0
5.875 0.75 0
6 0.75 0
5.875 0.875 0
6 0.875 0
5.75 0.875 0
5.875 0.875 0
5.75 1 0
5.875 1 0
5.875 0.875 0
6 0.875 0
5.875 1 0
6 1 0
4 0 0
4.125 0 0
4 0.125 0
4.125 0.125 0
4.125 0 0
4.25 0 0
4.125 0.125 0
4.25 0.125 0
4 0.125 0
4.125 0.125 0
4 0.25 0
4.125 0.25 0
4.125 0.125 0
4.25 0.125 0
4.125 0.25 0
4.25 0.25 0
4.25 0 0
4.375 0 0
4.25 0.125 0
4.375 0.125 0
4.375 0 0
4.5 0 0
4.375 0.125 0
4.5 0.125 0
4.25 0.125 0
4.375 0.125 0
4.25 0.25 0
4.375 0.25 0
4.375 0.125 0
4.5 0.125 0
4.375 0.25 0
4.5 0.25 0
4 0.25 0
4.125 0.25 0
4 0.375 0
4.125 0.375 0
4.125 0.25 0
4.25 0.25 0
4.125 0.375 0
4.25 0.375 0
4 0.375 0
4.125 0.375 0
4 0.5 0
4.125 0.5 0
4.125 0.375 0
4.25 0.375 0
4.125 0.5 0
4.25 0.5 0
4.25 0.25 0
4.375 0.25 0
4.25 0.375 0
4.375 0.375 0
4.375 0.25 0
4.5 0.25 0
4.375 0.375 0
4.5 0.375 0
4.25 0.375 0
4.375 0.375 0
4.25 0.5 0
4.375 0.5 0
4.375 0.375 0
4.5 0.375 0
4.375 0.5 0
4.5 0.5 0
4.5 0 0
4.625 0 0
4.5 0.125 0
4.625 0.125 0
4.625 0 0
4.75 0 0
4.625 0.125 0
4.75 0.125 0
4.5 0.125 0
4.625 0.125 0
4.5 0.25 0
4.625 0.25 0
4.625 0.125 0
4.75 0.125 0
4.625 0.25 0
4.75 0.25 0
4.75 0 0
4.875 0 0
4.75 0.125 0
4.875 0.125 0
4.875 0 0
5 0 0
4.875 0.125 0
5 0.125 0
4.75 0.125 0
4.875 0.125 0
4.75 0.25 0
4.875 0.25 0
4.875 0.125 0
5 0.125 0
4.875 0.25 0
5 0.25 0
4.5 0.25 0
4.625 0.25 0
4.5 0.375 0
4.625 0.375 0
4.625 0.25 0
4.75 0.25 0
4.625 0.375 0
4.75 0.375 0
4.5 0.375 0
4.625 0.375 0
4.5 0.5 0
4.625 0.5 0
4.625 0.375 0
4.75 0.375 0
4.625 0.5 0
4.75 0.5 0
4.75 0.25 0
4.875 0.25 0
4.75 0.375 0
4.875 0.375 0
4.875 0.25 0
5 0.25 0
4.875 0.375 0
5 0.375 0
4.75 0.375 0
4.875 0.375 0
4.75 0.5 0
4.875 0.5 0
4.875 0.375 0
5 0.375 0
4.875 0.5 0
5 0.5 0
4 0.5 0
4.125 0.5 0
4 0.625 0
4.125 0.625 0
4.125 0.5 0
4.25 0.5 0
4.125 0.625 0
4.25 0.625 0
4 0.625 0
4.125 0.625 0
4 0.75 0
4.125 0.75 0
4.125 0.625 0
4.25 0.625 0
4.125 0.75 0
4.25 0.75 0
4.25 0.5 0
4.375 0.5 0
4.25 0.625 0
4.375 0.625 0
4.375 0.5 0
4.5 0.5 0
4.375 0.625 0
4.5 0.625 0
4.25 0.625 0
4.375 0.625 0
4.25 0.75 0
4.375 0.75 0
4.375 0.625 0
4.5 0.625 0
4.375 0.75 0
4.5 0.75 0
4 0.75 0
4.125 0.75 0
4 0.875 0
4.125 0.875 0
4.125 0.75 0
4.25 0.75 0
4.125 0.875 0
4.25 0.875 0
4 0.875 0
4.125 0.875 0
4 1 0
4.125 1 0
4.125 0.875 0
4.25 0.875 0
4.125 1 0
4.25 1 0
4.25 0.75 0
4.375 0.75 0
4.25 0.875 0
4.375 0.875 0
4.375 0.75 0
4.5 0.75 0
4.375 0.875 0
4.5 0.875 0
4.25 0.875 0
4.375 0.875 0
4.25 1 0
4.375 1 0
4.375 0.875 0
4.5 0.875 0
4.375 1 0
4.5 1 0
4.5 0.5 0
4.625 0.5 0
4.5 0.625 0
4.625 0.625 0
4.625 0.5 0
4.75 0.5 0
4.625 0.625 0
4.75 0.625 0
4.5 0.625 0
4.625 0.625 0
4.5 0.75 0
4.625 0.75 0
4.625 0.625 0
4.75 0.625 0
4.625 0.75 0
4.75 0.75 0
4.75 0.5 0
4.875 0.5 0
4.75 0.625 0
4.875 0.625 0
4.875 0.5 0
5 0.5 0
4.875 0.625 0
5 0.625 0
4.75 0.625 0
4.875 0.625 0
4.75 0.75 0
4.875 0.75 0
4.875 0.625 0
5 0.625 0
4.875 0.75 0
5 0.75 0
4.5 0.75 0
4.625 0.75 0
4.5 0.875 0
4.625 0.875 0
4.625 0.75 0
4.75 0.75 0
4.625 0.875 0
4.75 0.875 0
4.5 0.875 0
4.625 0.875 0
4.5 1 0
4.625 1 0
4.625 0.875 0
4.75 0.875 0
4.625 1 0
4.75 1 0
4.75 0.75 0
4.875 0.75 0
4.75 0.875 0
4.875 0.875 0
4.875 0.75 0
5 0.75 0
4.875 0.875 0
5 0.875 0
4.75 0.875 0
4.875 0.875 0
4.75 1 0
4.875 1 0
4.875 0.875 0
5 0.875 0
4.875 1 0
5 1 0
3 0 0
3.125 0 0
3 0.125 0
3.125 0.125 0
3.125 0 0
3.25 0 0
3.125 0.125 0
3.25 0.125 0
3 0.125 0
3.125 0.125 0
3 0.25 0
3.125 0.25 0
3.125 0.125 0
3.25 0.125 0
3.125 0.25 0
3.25 0.25 0
3.25 0 0
3.375 0 0
3.25 0.125 0
3.375 0.125 0
3.375 0 0
3.5 0 0
3.375 0.125 0
3.5 0.125 0
3.25 0.125 0
3.375 0.125 0
3.25 0.25 0
3.375 0.25 0
3.375 0.125 0
3.5 0.125 0
3.375 0.25 0
3.5 0.25 0
3 0.25 0
3.125 0.25 0
3 0.375 0
3.125 0.375 0
3.125 0.25 0
3.25 0.25 0
3.125 0.375 0
3.25 0.375 0
3 0.375 0
3.125 0.375 0
3 0.5 0
3.125 0.5 0
3.125 0.375 0
3.25 0.375 0
3.125 0.5 0
3.25 0.5 0
3.25 0.25 0
3.375 0.25 0
3.25 0.375 0
3.375 0.375 0
3.375 0.25 0
3.5 0.25 0
3.375 0.375 0
3.5 0.375 0
3.25 0.375 0
3.375 0.375 0
3.25 0.5 0
3.375 0.5 0
3.375 0.375 0
3.5 0.375 0
3.375 0.5 0
3.5 0.5 0
3.5 0 0
3.625 0 0
3.5 0.125 0
3.625 0.125 0
3.625 0 0
3.75 0 0
3.625 0.125 0
3.75 0.125 0
3.5 0.125 0
3.625 0.125 0
3.5 0.25 0
3.625 0.25 0
3.625 0.125 0
3.75 0.125 0
3.625 0.25 0
3.75 0.25 0
3.75 0 0
3.875 0 0
3.75 0.125 0
3.875 0.125 0
3.875 0 0
4 0 0
3.875 0.125 0
4 0.125 0
3.75 0.125 0
3.875 0.125 0
3.75 0.25 0
3.875 0.25 0
3.875 0.125 0
4 0.125 0
3.875 0.25 0
4 0.25 0
3.5 0.25 0
3.625 0.25 0
3.5 0.375 0
3.625 0.375 0
3.625 0.25 0
3.75 0.25 0
3.625 0.375 0
3.75 0.375 0
3.5 0.375 0
3.625 0.375 0
3.5 0.5 0
3.625 0.5 0
3.625 0.375 0
3.75 0.375 0
3.625 0.5 0
3.75 0.5 0
3.75 0.25 0
3.875 0.25 0
3.75 0.375 0
3.875 0.375 0
3.875 0.25 0
4 0.25 0
3.875 0.375 0
4 0.375 0
3.75 0.375 0
3.875 0.375 0
3.75 0.5 0
3.875 0.5 0
3.875 0.375 0
4 0.375 0
3.875 0.5 0
4 0.5 0
3 0.5 0
3.125 0.5 0
3 0.625 0
3.125 0.625 0
3.125 0.5 0
3.25 0.5 0
3.125 0.625 0
3.25 0.625 0
3 0.625 0
3.125 0.625 0
3 0.75 0
3.125 0.75 0
3.125 0.625 0
3.25 0.625 0
3.125 0.75 0
3.25 0.75 0
3.25 0.5 0
3.375 0.5 0
3.25 0.625 0
3.375 0.625 0
3.375 0.5 0
3.5 0.5 0
3.375 0.625 0
3.5 0.625 0
3.25 0.625 0
3.375 0.625 0
3.25 0.75 0
3.375 0.75 0
3.375 0.625 0
3.5 0.625 0
3.375 0.75 0
3.5 0.75 0
3 0.75 0
3.125 0.75 0
3 0.875 0
3.125 0.875 0
3.125 0.75 0
3.25 0.75 0
3.125 0.875 0
3.25 0.875 0
3 0.875 0
3.125 0.875 0
3 1 0
3.125 1 0
3.125 0.875 0
3.25 0.875 0
3.125 1 0
3.25 1 0
3.25 0.75 0
3.375 0.75 0
3.25 0.875 0
3.375 0.875 0
3.375 0.75 0
3.5 0.75 0
3.375 0.875 0
3.5 0.875 0
3.25 0.875 0
3.375 0.875 0
3.25 1 0
3.375 1 0
3.375 0.875 0
3.5 0.875 0
3.375 1 0
3.5 1 0
3.5 0.5 0
3.625 0.5 0
3.5 0.625 0
3.625 0.625 0
3.625 0.5 0
3.75 0.5 0
3.625 0.625 0
3.75 0.625 0
3.5 0.625 0
3.625 0.625 0
3.5 0.75 0
3.625 0.75 0
3.625 0.625 0
3.75 0.625 0
3.625 0.75 0
3.75 0.75 0
3.75 0.5 0
3.875 0.5 0
3.75 0.625 0
3.875 0.625 0
3.875 0.5 0
4 0.5 0
3.875 0.625 0
4 0.625 0
3.75 0.625 0
3.875 0.625 0
3.75 0.75 0
3.875 0.75 0
3.875 0.625 0
4 0.625 0
3.875 0.75 0
4 0.75 0
3.5 0.75 0
3.625 0.75 0
3.5 0.875 0
3.625 0.875 0
3.625 0.75 0
3.75 0.75 0
3.625 0.875 0
3.75 0.875 0
3.5 0.875 0
3.625 0.875 0
3.5 1 0
3.625 1 0
3.625 0.875 0
3.75 0.875 0
3.625 1 0
3.75 1 0
3.75 0.75 0
3.875 0.75 0
3.75 0.875 0
3.875 0.875 0
3.875 0.75 0
4 0.75 0
3.875 0.875 0
4 0.875 0
3.75 0.875 0
3.875 0.875 0
3.75 1 0
3.875 1 0
3.875 0.875 0
4 0.875 0
3.875 1 0
4 1 0
2 0 0
2.125 0 0
2 0.125 0
2.125 0.125 0
2.125 0 0
2.25 0 0
2.125 0.125 0
2.25 0.125 0
2 0.125 0
2.125 0.125 0
2 0.25 0
2.125 0.25 0
2.125 0.125 0
2.25 0.125 0
2.125 0.25 0
2.25 0.25 0
2.25 0 0
2.375 0 0
2.25 0.125 0
2.375 0.125 0
2.375 0 0
2.5 0 0
2.375 0.125 0
2.5 0.125 0
2.25 0.125 0
2.375 0.125 0
2.25 0.25 0
2.375 0.25 0
2.375 0.125 0
2.5 0.125 0
2.375 0.25 0
2.5 0.25 0
2 0.25 0
2.125 0.25 0
2 0.375 0
2.125 0.375 0
2.125 0.25 0
2.25 0.25 0
2.125 0.375 0
2.25 0.375 0
2 0.375 0
2.125 0.375 0
2 0.5 0
2.125 0.5 0
2.125 0.375 0
2.25 0.375 0
2.125 0.5 0
2.25 0.5 0
2.25 0.25 0
2.375 0.25 0
2.25 0.375 0
2.375 0.375 0
2.375 0.25 0
[...]
POINT_DATA 1536
VECTORS displacements double
39.3505 -46.1289 0
40.0849 -41.2388 0
34.6367 -46.3577 0
35.223 -41.4434 0
40.0849 -41.2388 0
40.8261 -36.1738 0
35.223 -41.4434 0
35.7478 -36.3918 0
34.6367 -46.3577 0
35.223 -41.4434 0
30.5587 -46.5438 0
30.9272 -41.5911 0
35.223 -41.4434 0
35.7478 -36.3918 0
30.9272 -41.5911 0
31.2785 -36.5201 0
40.8261 -36.1738 0
41.5063 -30.924 0
35.7478 -36.3918 0
36.287 -31.1063 0
41.5063 -30.924 0
42.2114 -25.5021 0
36.287 -31.1063 0
36.7639 -25.7111 0
35.7478 -36.3918 0
36.287 -31.1063 0
31.2785 -36.5201 0
31.6239 -31.2338 0
36.287 -31.1063 0
36.7639 -25.7111 0
31.6239 -31.2338 0
31.913 -25.799 0
30.5587 -46.5438 0
30.9272 -41.5911 0
26.5701 -46.5968 0
26.7964 -41.724 0
30.9272 -41.5911 0
31.2785 -36.5201 0
26.7964 -41.724 0
26.9358 -36.5869 0
26.5701 -46.5968 0
26.7964 -41.724 0
22.7139 -46.6576 0
22.7003 -41.6908 0
26.7964 -41.724 0
26.9358 -36.5869 0
22.7003 -41.6908 0
22.7302 -36.6253 0
31.2785 -36.5201 0
31.6239 -31.2338 0
26.9358 -36.5869 0
27.0646 -31.2703 0
31.6239 -31.2338 0
31.913 -25.799 0
27.0646 -31.2703 0
27.2111 -25.8099 0
26.9358 -36.5869 0
27.0646 -31.2703 0
22.7302 -36.6253 0
22.6571 -31.2288 0
27.0646 -31.2703 0
27.2111 -25.8099 0
22.6571 -31.2288 0
22.6141 -25.7707 0
42.2114 -25.5021 0
42.8608 -19.9088 0
36.7639 -25.7111 0
37.2618 -20.0591 0
42.8608 -19.9088 0
43.6375 -14.0635 0
37.2618 -20.0591 0
37.6201 -14.304 0
36.7639 -25.7111 0
37.2618 -20.0591 0
31.913 -25.799 0
32.2039 -20.1358 0
37.2618 -20.0591 0
37.6201 -14.304 0
32.2039 -20.1358 0
32.4112 -14.3343 0
43.6375 -14.0635 0
44.4538 -7.91382 0
37.6201 -14.304 0
37.8457 -7.82091 0
44.4538 -7.91382 0
44.8819 0 0
37.8457 -7.82091 0
38.0591 -1.43312 0
37.6201 -14.304 0
37.8457 -7.82091 0
32.4112 -14.3343 0
32.4296 -8.14042 0
37.8457 -7.82091 0
38.0591 -1.43312 0
32.4296 -8.14042 0
32.5503 -2.32665 0
31.913 -25.799 0
32.2039 -20.1358 0
27.2111 -25.8099 0
27.3014 -20.1889 0
32.2039 -20.1358 0
32.4112 -14.3343 0
27.3014 -20.1889 0
27.2678 -14.3989 0
27.2111 -25.8099 0
27.3014 -20.1889 0
22.6141 -25.7707 0
22.5139 -20.2327 0
27.3014 -20.1889 0
27.2678 -14.3989 0
22.5139 -20.2327 0
22.3667 -14.6 0
32.4112 -14.3343 0
32.4296 -8.14042 0
27.2678 -14.3989 0
27.257 -8.60806 0
32.4296 -8.14042 0
32.5503 -2.32665 0
27.257 -8.60806 0
27.287 -2.85256 0
27.2678 -14.3989 0
27.257 -8.60806 0
22.3667 -14.6 0
22.281 -8.92825 0
27.257 -8.60806 0
27.287 -2.85256 0
22.281 -8.92825 0
22.3653 -3.52277 0
22.7139 -46.6576 0
22.7003 -41.6908 0
18.8268 -46.609 0
18.646 -41.6696 0
22.7003 -41.6908 0
22.7302 -36.6253 0
18.646 -41.6696 0
18.4021 -36.4713 0
18.8268 -46.609 0
18.646 -41.6696 0
14.8205 -46.4485 0
14.4866 -41.5181 0
18.646 -41.6696 0
18.4021 -36.4713 0
14.4866 -41.5181 0
14.0994 -36.3683 0
22.7302 -36.6253 0
22.6571 -31.2288 0
18.4021 -36.4713 0
18.254 -31.1816 0
22.6571 -31.2288 0
22.6141 -25.7707 0
18.254 -31.1816 0
18.0209 -25.7737 0
18.4021 -36.4713 0
18.254 -31.1816 0
14.0994 -36.3683 0
13.6862 -31.1178 0
18.254 -31.1816 0
18.0209 -25.7737 0
13.6862 -31.1178 0
13.3199 -25.7546 0
14.8205 -46.4485 0
14.4866 -41.5181 0
10.6241 -46.2302 0
10.0261 -41.3241 0
14.4866 -41.5181 0
14.0994 -36.3683 0
10.0261 -41.3241 0
9.47064 -36.2569 0
10.6241 -46.2302 0
10.0261 -41.3241 0
6.01436 -46.0035 0
5.35227 -41.1084 0
10.0261 -41.3241 0
9.47064 -36.2569 0
5.35227 -41.1084 0
4.87461 -36.1858 0
14.0994 -36.3683 0
13.6862 -31.1178 0
9.47064 -36.2569 0
9.03952 -31.0334 0
13.6862 -31.1178 0
13.3199 -25.7546 0
9.03952 -31.0334 0
8.71795 -25.7895 0
9.47064 -36.2569 0
9.03952 -31.0334 0
4.87461 -36.1858 0
4.32142 -30.9863 0
9.03952 -31.0334 0
8.71795 -25.7895 0
4.32142 -30.9863 0
3.72255 -25.6655 0
22.6141 -25.7707 0
22.5139 -20.2327 0
18.0209 -25.7737 0
17.7536 -20.2911 0
22.5139 -20.2327 0
22.3667 -14.6 0
17.7536 -20.2911 0
17.5992 -14.7762 0
18.0209 -25.7737 0
17.7536 -20.2911 0
13.3199 -25.7546 0
13.1016 -20.3723 0
17.7536 -20.2911 0
17.5992 -14.7762 0
13.1016 -20.3723 0
12.899 -14.8885 0
22.3667 -14.6 0
22.281 -8.92825 0
17.5992 -14.7762 0
17.5271 -9.24103 0
22.281 -8.92825 0
22.3653 -3.52277 0
17.5271 -9.24103 0
17.5984 -4.06732 0
17.5992 -14.7762 0
17.5271 -9.24103 0
12.899 -14.8885 0
12.8124 -9.47812 0
17.5271 -9.24103 0
17.5984 -4.06732 0
12.8124 -9.47812 0
12.8411 -4.38669 0
13.3199 -25.7546 0
13.1016 -20.3723 0
8.71795 -25.7895 0
8.3561 -20.3615 0
13.1016 -20.3723 0
12.899 -14.8885 0
8.3561 -20.3615 0
8.09793 -14.9199 0
8.71795 -25.7895 0
8.3561 -20.3615 0
3.72255 -25.6655 0
3.26801 -20.2699 0
8.3561 -20.3615 0
8.09793 -14.9199 0
3.26801 -20.2699 0
2.99231 -14.8807 0
12.899 -14.8885 0
12.8124 -9.47812 0
8.09793 -14.9199 0
7.97264 -9.59043 0
12.8124 -9.47812 0
12.8411 -4.38669 0
7.97264 -9.59043 0
7.951 -4.48919 0
8.09793 -14.9199 0
7.97264 -9.59043 0
2.99231 -14.8807 0
2.90043 -9.6087 0
7.97264 -9.59043 0
7.951 -4.48919 0
2.90043 -9.6087 0
2.89467 -4.49563 0
32.1457 -77.6355 0
33.1774 -74.5439 0
29.3203 -77.9308 0
30.0534 -74.8364 0
33.1774 -74.5439 0
34.146 -71.1786 0
30.0534 -74.8364 0
30.789 -71.4535 0
29.3203 -77.9308 0
30.0534 -74.8364 0
26.9772 -78.1345 0
27.4065 -75.0201 0
30.0534 -74.8364 0
30.789 -71.4535 0
27.4065 -75.0201 0
27.8547 -71.643 0
34.146 -71.1786 0
35.093 -67.582 0
30.789 -71.4535 0
31.4858 -67.8387 0
35.093 -67.582 0
36.0354 -63.7372 0
31.4858 -67.8387 0
32.1222 -64.0027 0
30.789 -71.4535 0
31.4858 -67.8387 0
27.8547 -71.643 0
28.3208 -67.9899 0
31.4858 -67.8387 0
32.1222 -64.0027 0
28.3208 -67.9899 0
28.8006 -64.1422 0
26.9772 -78.1345 0
27.4065 -75.0201 0
24.8468 -78.2174 0
24.9912 -75.103 0
27.4065 -75.0201 0
27.8547 -71.643 0
24.9912 -75.103 0
25.1631 -71.7065 0
24.8468 -78.2174 0
24.9912 -75.103 0
22.7511 -78.1754 0
22.6361 -75.0616 0
24.9912 -75.103 0
25.1631 -71.7065 0
22.6361 -75.0616 0
22.5827 -71.6648 0
27.8547 -71.643 0
28.3208 -67.9899 0
25.1631 -71.7065 0
25.3873 -68.0687 0
28.3208 -67.9899 0
28.8006 -64.1422 0
25.3873 -68.0687 0
25.6039 -64.2056 0
25.1631 -71.7065 0
25.3873 -68.0687 0
22.5827 -71.6648 0
22.5524 -68.0562 0
25.3873 -68.0687 0
25.6039 -64.2056 0
22.5524 -68.0562 0
22.574 -64.1876 0
36.0354 -63.7372 0
36.9145 -59.6231 0
32.1222 -64.0027 0
32.7834 -59.8748 0
36.9145 -59.6231 0
37.7386 -55.3163 0
32.7834 -59.8748 0
33.4447 -55.5548 0
32.1222 -64.0027 0
32.7834 -59.8748 0
28.8006 -64.1422 0
29.2573 -60.0758 0
32.7834 -59.8748 0
33.4447 -55.5548 0
29.2573 -60.0758 0
29.7063 -55.7417 0
37.7386 -55.3163 0
38.5576 -50.8322 0
33.4447 -55.5548 0
34.0556 -51.0669 0
38.5576 -50.8322 0
39.3505 -46.1289 0
34.0556 -51.0669 0
34.6367 -46.3577 0
33.4447 -55.5548 0
34.0556 -51.0669 0
29.7063 -55.7417 0
30.1279 -51.2212 0
34.0556 -51.0669 0
34.6367 -46.3577 0
30.1279 -51.2212 0
30.5587 -46.5438 0
28.8006 -64.1422 0
29.2573 -60.0758 0
25.6039 -64.2056 0
25.8583 -60.1395 0
29.2573 -60.0758 0
29.7063 -55.7417 0
25.8583 -60.1395 0
26.119 -55.8663 0
25.6039 -64.2056 0
25.8583 -60.1395 0
22.574 -64.1876 0
22.5459 -60.1283 0
25.8583 -60.1395 0
26.119 -55.8663 0
22.5459 -60.1283 0
22.5954 -55.8542 0
29.7063 -55.7417 0
30.1279 -51.2212 0
26.119 -55.8663 0
26.358 -51.3611 0
30.1279 -51.2212 0
30.5587 -46.5438 0
26.358 -51.3611 0
26.5701 -46.5968 0
26.119 -55.8663 0
26.358 -51.3611 0
22.5954 -55.8542 0
22.677 -51.3923 0
26.358 -51.3611 0
26.5701 -46.5968 0
22.677 -51.3923 0
22.7139 -46.6576 0
22.7511 -78.1754 0
22.6361 -75.0616 0
20.6198 -78.0174 0
20.2738 -74.9008 0
22.6361 -75.0616 0
22.5827 -71.6648 0
20.2738 -74.9008 0
19.9888 -71.5511 0
20.6198 -78.0174 0
20.2738 -74.9008 0
18.3989 -77.7717 0
17.8685 -74.6879 0
20.2738 -74.9008 0
19.9888 -71.5511 0
17.8685 -74.6879 0
17.362 -71.3611 0
22.5827 -71.6648 0
22.5524 -68.0562 0
19.9888 -71.5511 0
19.7531 -67.9509 0
22.5524 -68.0562 0
22.574 -64.1876 0
19.7531 -67.9509 0
19.5142 -64.1149 0
19.9888 -71.5511 0
19.7531 -67.9509 0
17.362 -71.3611 0
16.8792 -67.7938 0
19.7531 -67.9509 0
19.5142 -64.1149 0
16.8792 -67.7938 0
16.444 -63.9596 0
18.3989 -77.7717 0
17.8685 -74.6879 0
16.0491 -77.5034 0
15.2722 -74.4359 0
17.8685 -74.6879 0
17.362 -71.3611 0
15.2722 -74.4359 0
14.5431 -71.1345 0
16.0491 -77.5034 0
15.2722 -74.4359 0
13.1608 -77.2017 0
12.1688 -74.1468 0
15.2722 -74.4359 0
14.5431 -71.1345 0
12.1688 -74.1468 0
11.185 -70.8482 0
17.362 -71.3611 0
16.8792 -67.7938 0
14.5431 -71.1345 0
13.8215 -67.5674 0
16.8792 -67.7938 0
16.444 -63.9596 0
13.8215 -67.5674 0
13.1378 -63.7723 0
14.5431 -71.1345 0
13.8215 -67.5674 0
11.185 -70.8482 0
10.2419 -67.2964 0
13.8215 -67.5674 0
13.1378 -63.7723 0
10.2419 -67.2964 0
9.3203 -63.509 0
22.574 -64.1876 0
22.5459 -60.1283 0
19.5142 -64.1149 0
19.3488 -60.0451 0
22.5459 -60.1283 0
22.5954 -55.8542 0
19.3488 -60.0451 0
19.1286 -55.7771 0
19.5142 -64.1149 0
19.3488 -60.0451 0
16.444 -63.9596 0
15.9986 -59.9218 0
19.3488 -60.0451 0
19.1286 -55.7771 0
15.9986 -59.9218 0
15.5967 -55.6381 0
22.5954 -55.8542 0
22.677 -51.3923 0
19.1286 -55.7771 0
18.9468 -51.2998 0
22.677 -51.3923 0
22.7139 -46.6576 0
18.9468 -51.2998 0
18.8268 -46.609 0
19.1286 -55.7771 0
18.9468 -51.2998 0
15.5967 -55.6381 0
15.1961 -51.137 0
18.9468 -51.2998 0
18.8268 -46.609 0
15.1961 -51.137 0
14.8205 -46.4485 0
16.444 -63.9596 0
15.9986 -59.9218 0
13.1378 -63.7723 0
12.4868 -59.7274 0
15.9986 -59.9218 0
15.5967 -55.6381 0
12.4868 -59.7274 0
11.8388 -55.4404 0
13.1378 -63.7723 0
12.4868 -59.7274 0
9.3203 -63.509 0
8.42537 -59.4711 0
12.4868 -59.7274 0
11.8388 -55.4404 0
8.42537 -59.4711 0
7.58384 -55.199 0
15.5967 -55.6381 0
15.1961 -51.137 0
11.8388 -55.4404 0
11.2296 -50.9479 0
15.1961 -51.137 0
14.8205 -46.4485 0
11.2296 -50.9479 0
10.6241 -46.2302 0
11.8388 -55.4404 0
11.2296 -50.9479 0
7.58384 -55.199 0
6.76741 -50.7098 0
11.2296 -50.9479 0
10.6241 -46.2302 0
6.76741 -50.7098 0
6.01436 -46.0035 0
22.441 -89.4762 0
23.7356 -89.2912 0
22.441 -89.8536 0
23.3863 -89.6672 0
23.7356 -89.2912 0
25.0189 -88.7419 0
23.3863 -89.6672 0
24.3289 -89.1138 0
22.441 -89.8536 0
23.3863 -89.6672 0
22.441 -90.4465 0
23.2936 -90.2273 0
23.3863 -89.6672 0
24.3289 -89.1138 0
23.2936 -90.2273 0
24.0724 -89.5669 0
25.0189 -88.7419 0
26.2822 -87.8428 0
24.3289 -89.1138 0
25.2637 -88.2072 0
26.2822 -87.8428 0
27.5328 -86.5844 0
25.2637 -88.2072 0
26.1498 -86.9358 0
24.3289 -89.1138 0
25.2637 -88.2072 0
24.0724 -89.5669 0
24.7233 -88.5551 0
25.2637 -88.2072 0
26.1498 -86.9358 0
24.7233 -88.5551 0
25.1866 -87.232 0
22.441 -90.4465 0
23.2936 -90.2273 0
22.441 -91.0709 0
23.0884 -90.8314 0
23.2936 -90.2273 0
24.0724 -89.5669 0
23.0884 -90.8314 0
23.6629 -90.1383 0
22.441 -91.0709 0
23.0884 -90.8314 0
22.441 -91.6778 0
22.8615 -91.4256 0
23.0884 -90.8314 0
23.6629 -90.1383 0
22.8615 -91.4256 0
23.1911 -90.6775 0
24.0724 -89.5669 0
24.7233 -88.5551 0
23.6629 -90.1383 0
24.0789 -88.9579 0
24.7233 -88.5551 0
25.1866 -87.232 0
24.0789 -88.9579 0
24.3497 -87.5463 0
23.6629 -90.1383 0
24.0789 -88.9579 0
23.1911 -90.6775 0
23.3434 -89.3536 0
24.0789 -88.9579 0
24.3497 -87.5463 0
23.3434 -89.3536 0
23.3549 -87.7504 0
27.5328 -86.5844 0
28.7681 -84.9124 0
26.1498 -86.9358 0
26.9691 -85.2573 0
28.7681 -84.9124 0
29.9359 -82.8433 0
26.9691 -85.2573 0
27.7982 -83.1618 0
26.1498 -86.9358 0
26.9691 -85.2573 0
25.1866 -87.232 0
25.6697 -85.4859 0
26.9691 -85.2573 0
27.7982 -83.1618 0
25.6697 -85.4859 0
26.1266 -83.3964 0
29.9359 -82.8433 0
31.0719 -80.4173 0
27.7982 -83.1618 0
28.5595 -80.7338 0
31.0719 -80.4173 0
32.1457 -77.6355 0
28.5595 -80.7338 0
29.3203 -77.9308 0
27.7982 -83.1618 0
28.5595 -80.7338 0
26.1266 -83.3964 0
26.5319 -80.9122 0
28.5595 -80.7338 0
29.3203 -77.9308 0
26.5319 -80.9122 0
26.9772 -78.1345 0
25.1866 -87.232 0
25.6697 -85.4859 0
24.3497 -87.5463 0
24.5102 -85.6744 0
25.6697 -85.4859 0
26.1266 -83.3964 0
24.5102 -85.6744 0
24.6151 -83.5148 0
24.3497 -87.5463 0
24.5102 -85.6744 0
23.3549 -87.7504 0
23.2659 -85.791 0
24.5102 -85.6744 0
24.6151 -83.5148 0
23.2659 -85.791 0
23.0928 -83.5204 0
26.1266 -83.3964 0
26.5319 -80.9122 0
24.6151 -83.5148 0
24.7414 -80.9951 0
26.5319 -80.9122 0
26.9772 -78.1345 0
24.7414 -80.9951 0
24.8468 -78.2174 0
24.6151 -83.5148 0
24.7414 -80.9951 0
23.0928 -83.5204 0
22.9219 -81.0055 0
24.7414 -80.9951 0
24.8468 -78.2174 0
22.9219 -81.0055 0
22.7511 -78.1754 0
22.441 -91.6778 0
22.8615 -91.4256 0
22.441 -92.2991 0
22.6087 -91.9955 0
22.8615 -91.4256 0
23.1911 -90.6775 0
22.6087 -91.9955 0
22.679 -91.1619 0
22.441 -92.2991 0
22.6087 -91.9955 0
22.441 -92.8629 0
22.2216 -92.5784 0
22.6087 -91.9955 0
22.679 -91.1619 0
22.2216 -92.5784 0
21.9331 -91.3627 0
23.1911 -90.6775 0
23.3434 -89.3536 0
22.679 -91.1619 0
22.5109 -89.6234 0
23.3434 -89.3536 0
23.3549 -87.7504 0
22.5109 -89.6234 0
22.246 -87.8317 0
22.679 -91.1619 0
22.5109 -89.6234 0
21.9331 -91.3627 0
21.5086 -89.7145 0
22.5109 -89.6234 0
22.246 -87.8317 0
21.5086 -89.7145 0
20.9408 -87.7724 0
22.441 -92.8629 0
22.2216 -92.5784 0
22.441 -93.4868 0
21.8053 -92.7774 0
22.2216 -92.5784 0
21.9331 -91.3627 0
21.8053 -92.7774 0
21.0576 -91.3443 0
22.441 -93.4868 0
21.8053 -92.7774 0
22.441 -93.4297 0
20.9319 -92.6283 0
21.8053 -92.7774 0
21.0576 -91.3443 0
20.9319 -92.6283 0
19.6319 -91.0295 0
21.9331 -91.3627 0
21.5086 -89.7145 0
21.0576 -91.3443 0
20.2446 -89.6224 0
21.5086 -89.7145 0
20.9408 -87.7724 0
20.2446 -89.6224 0
19.3845 -87.6206 0
21.0576 -91.3443 0
20.2446 -89.6224 0
19.6319 -91.0295 0
18.4416 -89.2966 0
20.2446 -89.6224 0
19.3845 -87.6206 0
18.4416 -89.2966 0
17.3278 -87.2969 0
23.3549 -87.7504 0
23.2659 -85.791 0
22.246 -87.8317 0
21.8388 -85.7671 0
23.2659 -85.791 0
23.0928 -83.5204 0
21.8388 -85.7671 0
21.4307 -83.4589 0
22.246 -87.8317 0
21.8388 -85.7671 0
20.9408 -87.7724 0
20.3406 -85.6613 0
21.8388 -85.7671 0
21.4307 -83.4589 0
20.3406 -85.6613 0
19.6501 -83.2729 0
23.0928 -83.5204 0
22.9219 -81.0055 0
21.4307 -83.4589 0
20.9971 -80.8912 0
22.9219 -81.0055 0
22.7511 -78.1754 0
20.9971 -80.8912 0
20.6198 -78.0174 0
21.4307 -83.4589 0
20.9971 -80.8912 0
19.6501 -83.2729 0
18.9819 -80.5736 0
20.9971 -80.8912 0
20.6198 -78.0174 0
18.9819 -80.5736 0
18.3989 -77.7717 0
20.9408 -87.7724 0
20.3406 -85.6613 0
19.3845 -87.6206 0
18.5267 -85.3945 0
20.3406 -85.6613 0
19.6501 -83.2729 0
18.5267 -85.3945 0
17.6761 -82.9629 0
19.3845 -87.6206 0
18.5267 -85.3945 0
17.3278 -87.2969 0
16.2502 -85.0756 0
18.5267 -85.3945 0
17.6761 -82.9629 0
16.2502 -85.0756 0
15.2026 -82.6498 0
19.6501 -83.2729 0
18.9819 -80.5736 0
17.6761 -82.9629 0
16.8443 -80.3348 0
18.9819 -80.5736 0
18.3989 -77.7717 0
16.8443 -80.3348 0
16.0491 -77.5034 0
17.6761 -82.9629 0
16.8443 -80.3348 0
15.2026 -82.6498 0
14.1774 -80.0303 0
16.8443 -80.3348 0
16.0491 -77.5034 0
14.1774 -80.0303 0
13.1608 -77.2017 0
12.7362 -77.6355 0
13.81 -80.4173 0
15.5616 -77.9308 0
16.3224 -80.7338 0
13.81 -80.4173 0
14.946 -82.8433 0
16.3224 -80.7338 0
17.0837 -83.1618 0
15.5616 -77.9308 0
16.3224 -80.7338 0
17.9048 -78.1345 0
18.35 -80.9122 0
16.3224 -80.7338 0
17.0837 -83.1618 0
18.35 -80.9122 0
18.7553 -83.3964 0
14.946 -82.8433 0
16.1138 -84.9124 0
17.0837 -83.1618 0
17.9128 -85.2573 0
16.1138 -84.9124 0
17.3491 -86.5844 0
17.9128 -85.2573 0
18.7321 -86.9358 0
17.0837 -83.1618 0
17.9128 -85.2573 0
18.7553 -83.3964 0
19.2122 -85.4859 0
17.9128 -85.2573 0
18.7321 -86.9358 0
19.2122 -85.4859 0
19.6953 -87.232 0
17.9048 -78.1345 0
18.35 -80.9122 0
20.0351 -78.2174 0
20.1405 -80.9951 0
18.35 -80.9122 0
18.7553 -83.3964 0
20.1405 -80.9951 0
20.2668 -83.5148 0
20.0351 -78.2174 0
20.1405 -80.9951 0
22.1308 -78.1754 0
21.96 -81.0055 0
20.1405 -80.9951 0
20.2668 -83.5148 0
21.96 -81.0055 0
21.7891 -83.5204 0
18.7553 -83.3964 0
19.2122 -85.4859 0
20.2668 -83.5148 0
20.3717 -85.6744 0
19.2122 -85.4859 0
19.6953 -87.232 0
20.3717 -85.6744 0
20.5322 -87.5463 0
20.2668 -83.5148 0
20.3717 -85.6744 0
21.7891 -83.5204 0
21.616 -85.791 0
20.3717 -85.6744 0
20.5322 -87.5463 0
21.616 -85.791 0
21.527 -87.7504 0
17.3491 -86.5844 0
18.5997 -87.8428 0
18.7321 -86.9358 0
19.6182 -88.2072 0
18.5997 -87.8428 0
19.863 -88.7419 0
19.6182 -88.2072 0
20.5531 -89.1138 0
18.7321 -86.9358 0
19.6182 -88.2072 0
19.6953 -87.232 0
20.1587 -88.5551 0
19.6182 -88.2072 0
20.5531 -89.1138 0
20.1587 -88.5551 0
20.8095 -89.5669 0
19.863 -88.7419 0
21.1463 -89.2912 0
20.5531 -89.1138 0
21.4957 -89.6672 0
21.1463 -89.2912 0
22.441 -89.4762 0
21.4957 -89.6672 0
22.441 -89.8536 0
20.5531 -89.1138 0
21.4957 -89.6672 0
20.8095 -89.5669 0
21.5883 -90.2273 0
21.4957 -89.6672 0
22.441 -89.8536 0
21.5883 -90.2273 0
22.441 -90.4465 0
19.6953 -87.232 0
20.1587 -88.5551 0
20.5322 -87.5463 0
20.803 -88.9579 0
20.1587 -88.5551 0
20.8095 -89.5669 0
20.803 -88.9579 0
21.2191 -90.1383 0
20.5322 -87.5463 0
20.803 -88.9579 0
21.527 -87.7504 0
21.5385 -89.3536 0
20.803 -88.9579 0
21.2191 -90.1383 0
21.5385 -89.3536 0
21.6909 -90.6775 0
20.8095 -89.5669 0
21.5883 -90.2273 0
21.2191 -90.1383 0
21.7936 -90.8314 0
21.5883 -90.2273 0
22.441 -90.4465 0
21.7936 -90.8314 0
22.441 -91.0709 0
21.2191 -90.1383 0
21.7936 -90.8314 0
21.6909 -90.6775 0
22.0204 -91.4256 0
21.7936 -90.8314 0
22.441 -91.0709 0
22.0204 -91.4256 0
22.441 -91.6778 0
22.1308 -78.1754 0
21.96 -81.0055 0
24.2621 -78.0174 0
23.8848 -80.8912 0
21.96 -81.0055 0
21.7891 -83.5204 0
23.8848 -80.8912 0
23.4512 -83.4589 0
24.2621 -78.0174 0
23.8848 -80.8912 0
26.483 -77.7717 0
25.9 -80.5736 0
23.8848 -80.8912 0
23.4512 -83.4589 0
25.9 -80.5736 0
25.2318 -83.2729 0
21.7891 -83.5204 0
21.616 -85.791 0
23.4512 -83.4589 0
23.0431 -85.7671 0
21.616 -85.791 0
21.527 -87.7504 0
23.0431 -85.7671 0
22.6359 -87.8317 0
23.4512 -83.4589 0
23.0431 -85.7671 0
25.2318 -83.2729 0
24.5413 -85.6613 0
23.0431 -85.7671 0
22.6359 -87.8317 0
24.5413 -85.6613 0
23.9411 -87.7724 0
26.483 -77.7717 0
25.9 -80.5736 0
28.8328 -77.5034 0
28.0376 -80.3348 0
25.9 -80.5736 0
25.2318 -83.2729 0
28.0376 -80.3348 0
27.2058 -82.9629 0
28.8328 -77.5034 0
28.0376 -80.3348 0
31.7211 -77.2017 0
30.7046 -80.0303 0
28.0376 -80.3348 0
27.2058 -82.9629 0
30.7046 -80.0303 0
29.6793 -82.6498 0
25.2318 -83.2729 0
24.5413 -85.6613 0
27.2058 -82.9629 0
26.3553 -85.3945 0
24.5413 -85.6613 0
23.9411 -87.7724 0
26.3553 -85.3945 0
25.4975 -87.6206 0
27.2058 -82.9629 0
26.3553 -85.3945 0
29.6793 -82.6498 0
28.6317 -85.0756 0
26.3553 -85.3945 0
25.4975 -87.6206 0
28.6317 -85.0756 0
27.5541 -87.2969 0
21.527 -87.7504 0
21.5385 -89.3536 0
22.6359 -87.8317 0
22.371 -89.6234 0
21.5385 -89.3536 0
21.6909 -90.6775 0
22.371 -89.6234 0
22.203 -91.1619 0
22.6359 -87.8317 0
22.371 -89.6234 0
23.9411 -87.7724 0
23.3733 -89.7145 0
22.371 -89.6234 0
22.203 -91.1619 0
23.3733 -89.7145 0
22.9489 -91.3627 0
21.6909 -90.6775 0
22.0204 -91.4256 0
22.203 -91.1619 0
22.2732 -91.9955 0
22.0204 -91.4256 0
22.441 -91.6778 0
22.2732 -91.9955 0
22.441 -92.2991 0
22.203 -91.1619 0
22.2732 -91.9955 0
22.9489 -91.3627 0
22.6603 -92.5784 0
22.2732 -91.9955 0
22.441 -92.2991 0
22.6603 -92.5784 0
22.441 -92.8629 0
23.9411 -87.7724 0
23.3733 -89.7145 0
25.4975 -87.6206 0
24.6373 -89.6224 0
23.3733 -89.7145 0
22.9489 -91.3627 0
24.6373 -89.6224 0
23.8243 -91.3443 0
25.4975 -87.6206 0
24.6373 -89.6224 0
27.5541 -87.2969 0
26.4403 -89.2966 0
24.6373 -89.6224 0
23.8243 -91.3443 0
26.4403 -89.2966 0
25.25 -91.0295 0
22.9489 -91.3627 0
22.6603 -92.5784 0
23.8243 -91.3443 0
23.0766 -92.7774 0
22.6603 -92.5784 0
22.441 -92.8629 0
23.0766 -92.7774 0
22.441 -93.4868 0
23.8243 -91.3443 0
23.0766 -92.7774 0
25.25 -91.0295 0
23.95 -92.6283 0
23.0766 -92.7774 0
22.441 -93.4868 0
23.95 -92.6283 0
22.441 -93.4297 0
5.53138 -46.1289 0
6.3243 -50.8322 0
10.2452 -46.3577 0
10.8263 -51.0669 0
6.3243 -50.8322 0
7.14337 -55.3163 0
10.8263 -51.0669 0
11.4373 -55.5548 0
10.2452 -46.3577 0
10.8263 -51.0669 0
14.3233 -46.5438 0
14.7541 -51.2212 0
10.8263 -51.0669 0
11.4373 -55.5548 0
14.7541 -51.2212 0
15.1756 -55.7417 0
7.14337 -55.3163 0
7.96742 -59.6231 0
11.4373 -55.5548 0
12.0985 -59.8748 0
7.96742 -59.6231 0
8.84655 -63.7372 0
12.0985 -59.8748 0
12.7598 -64.0027 0
11.4373 -55.5548 0
12.0985 -59.8748 0
15.1756 -55.7417 0
15.6247 -60.0758 0
12.0985 -59.8748 0
12.7598 -64.0027 0
15.6247 -60.0758 0
16.0813 -64.1422 0
14.3233 -46.5438 0
14.7541 -51.2212 0
18.3118 -46.5968 0
18.5239 -51.3611 0
14.7541 -51.2212 0
15.1756 -55.7417 0
18.5239 -51.3611 0