# vtk DataFile Version 3.0
#This file was generated by the deal.II library on 2020/9/2 at 8:40:56
ASCII
DATASET UNSTRUCTURED_GRID

POINTS 1536 double
5 0 0
5.125 0 0
5 0.125 0
5.125 0.125 0
5.125 0 0
5.25 0 0
5.125 0.125 0
5.25 0.125 0
5 0.125 0
5.125 0.125 0
5 0.25 0
5.125 0.25 0
5.125 0.125 0
5.25 0.125 0
5.125 0.25 0
5.25 0.25 0
5.25 0 0
5.375 0 0
5.25 0.125 0
5.375 0.125 0
5.375 0 0
5.5 0 0
5.375 0.125 0
5.5 0.125 0
5.25 0.125 0
5.375 0.125 0
5.25 0.25 0
5.375 0.25 0
5.375 0.125 0
5.5 0.125 0
5.375 0.25 0
5.5 0.25 0
5 0.25 0
5.125 0.25 0
5 0.375 0
5.125 0.375 0
5.125 0.25 0
5.25 0.25 0
5.125 0.375 0
5.25 0.375 0
5 0.375 0
5.125 0.375 0
5 0.5 0
5.125 0.5 0
5.125 0.375 0
5.25 0.375 0
5.125 0.5 0
5.25 0.5 0
5.25 0.25 0
5.375 0.25 0
5.25 0.375 0
5.375 0.375 0
5.375 0.25 0
5.5 0.25 0
5.375 0.375 0
5.5 0.375 0
5.25 0.375 0
5.375 0.375 0
5.25 0.5 0
5.375 0.5 0
5.375 0.375 0
5.5 0.375 0
5.375 0.5 0
5.5 0.5 0
5.5 0 0
5.625 0 0
5.5 0.125 0
5.625 0.125 0
5.625 0 0
5.75 0 0
5.625 0.125 0
5.75 0.125 0
5.5 0.125 0
5.625 0.125 0
5.5 0.25 0
5.625 0.25 0
5.625 0.125 0
5.75 0.125 0
5.625 0.25 0
5.75 0.25 0
5.75 0 0
5.875 0 0
5.75 0.125 0
5.875 0.125 0
5.875 0 0
6 0 0
5.875 0.125 0
6 0.125 0
5.75 0.125 0
5.875 0.125 0
5.75 0.25 0
5.875 0.25 0
5.875 0.125 0
6 0.125 0
5.875 0.25 0
6 0.25 0
5.5 0.25 0
5.625 0.25 0
5.5 0.375 0
5.625 0.375 0
5.625 0.25 0
5.75 0.25 0
5.625 0.375 0
5.75 0.375 0
5.5 0.375 0
5.625 0.375 0
5.5 0.5 0
5.625 0.5 0
5.625 0.375 0
5.75 0.375 0
5.625 0.5 0
5.75 0.5 0
5.75 0.25 0
5.875 0.25 0
5.75 0.375 0
5.875 0.375 0
5.875 0.25 0
6 0.25 0
5.875 0.375 0
6 0.375 0
5.75 0.375 0
5.875 0.375 0
5.75 0.5 0
5.875 0.5 0
5.875 0.375 0
6 0.375 0
5.875 0.5 0
6 0.5 0
5 0.5 0
5.125 0.5 0
5 0.625 0
5.125 0.625 0
5.125 0.5 0
5.25 0.5 0
5.125 0.625 0
5.25 0.625 0
5 0.625 0
5.125 0.625 0
5 0.75 0
5.125 0.75 0
5.125 0.625 0
5.25 0.625 0
5.125 0.75 0
5.25 0.75 0
5.25 0.5 0
5.375 0.5 0
5.25 0.625 0
5.375 0.625 0
5.375 0.5 0
5.5 0.5 0
5.375 0.625 0
5.5 0.625 0
5.25 0.625 0
5.375 0.625 0
5.25 0.75 0
5.375 0.75 0
5.375 0.625 0
5.5 0.625 0
5.375 0.75 0
5.5 0.75 0
5 0.75 0
5.125 0.75 0
5 0.875 0
5.125 0.875 0
5.125 0.75 0
5.25 0.75 0
5.125 0.875 0
5.25 0.875 0
5 0.875 0
5.125 0.875 0
5 1 0
5.125 1 0
5.125 0.875 0
5.25 0.875 0
5.125 1 0
5.25 1 0
5.25 0.75 0
5.375 0.75 0
5.25 0.875 0
5.375 0.875 0
5.375 0.75 0
5.5 0.75 0
5.375 0.875 0
5.5 0.875 0
5.25 0.875 0
5.375 0.875 0
5.25 1 0
5.375 1 0
5.375 0.875 0
5.5 0.875 0
5.375 1 0
5.5 1 0
5.5 0.5 0
5.625 0.5 0
5.5 0.625 0
5.625 0.625 0
5.625 0.5 0
5.75 0.5 0
5.625 0.625 0
5.75 0.625 0
5.5 0.625 0
5.625 0.625 0
5.5 0.75 0
5.625 0.75 0
5.625 0.625 0
5.75 0.625 0
5.625 0.75 0
5.75 0.75 0
5.75 0.5 0
5.875 0.5 0
5.75 0.625 0
5.875 0.625 0
5.875 0.5 0
6 0.5 0
5.875 0.625 0
6 0.625 0
5.75 0.625 0
5.875 0.625 0
5.75 0.75 0
5.875 0.75 0
5.875 0.625 0
6 0.625 0
5.875 0.75 0
6 0.75 0
5.5 0.75 0
5.625 0.75 0
5.5 0.875 0
5.625 0.875 0
5.625 0.75 0
5.75 0.75 0
5.625 0.875 0
5.75 0.875 0
5.5 0.875 0
5.625 0.875 0
5.5 1 0
5.625 1 0
5.625 0.875 0
5.75 0.875 0
5.625 1 0
5.75 1 0
5.75 0.75 0
5.875 0.75 0
5.75 0.875 0
5.875 0.875 0
5.875 0.75 0
6 0.75 0
5.875 0.875 0
6 0.875 0
5.75 0.875 0
5.875 0.875 0
5.75 1 0
5.875 1 0
5.875 0.875 0
6 0.875 0
5.875 1 0
6 1 0
4 0 0
4.125 0 0
4 0.125 0
4.125 0.125 0
4.125 0 0
4.25 0 0
4.125 0.125 0
4.25 0.125 0
4 0.125 0
4.125 0.125 0
4 0.25 0
4.125 0.25 0
4.125 0.125 0
4.25 0.125 0
4.125 0.25 0
4.25 0.25 0
4.25 0 0
4.375 0 0
4.25 0.125 0
4.375 0.125 0
4.375 0 0
4.5 0 0
4.375 0.125 0
4.5 0.125 0
4.25 0.125 0
4.375 0.125 0
4.25 0.25 0
4.375 0.25 0
4.375 0.125 0
4.5 0.125 0
4.375 0.25 0
4.5 0.25 0
4 0.25 0
4.125 0.25 0
4 0.375 0
4.125 0.375 0
4.125 0.25 0
4.25 0.25 0
4.125 0.375 0
4.25 0.375 0
4 0.375 0
4.125 0.375 0
4 0.5 0
4.125 0.5 0
4.125 0.375 0
4.25 0.375 0
4.125 0.5 0
4.25 0.5 0
4.25 0.25 0
4.375 0.25 0
4.25 0.375 0
4.375 0.375 0
4.375 0.25 0
4.5 0.25 0
4.375 0.375 0
4.5 0.375 0
4.25 0.375 0
4.375 0.375 0
4.25 0.5 0
4.375 0.5 0
4.375 0.375 0
4.5 0.375 0
4.375 0.5 0
4.5 0.5 0
4.5 0 0
4.625 0 0
4.5 0.125 0
4.625 0.125 0
4.625 0 0
4.75 0 0
4.625 0.125 0
4.75 0.125 0
4.5 0.125 0
4.625 0.125 0
4.5 0.25 0
4.625 0.25 0
4.625 0.125 0
4.75 0.125 0
4.625 0.25 0
4.75 0.25 0
4.75 0 0
4.875 0 0
4.75 0.125 0
4.875 0.125 0
4.875 0 0
5 0 0
4.875 0.125 0
5 0.125 0
4.75 0.125 0
4.875 0.125 0
4.75 0.25 0
4.875 0.25 0
4.875 0.125 0
5 0.125 0
4.875 0.25 0
5 0.25 0
4.5 0.25 0
4.625 0.25 0
4.5 0.375 0
4.625 0.375 0
4.625 0.25 0
4.75 0.25 0
4.625 0.375 0
4.75 0.375 0
4.5 0.375 0
4.625 0.375 0
4.5 0.5 0
4.625 0.5 0
4.625 0.375 0
4.75 0.375 0
4.625 0.5 0
4.75 0.5 0
4.75 0.25 0
4.875 0.25 0
4.75 0.375 0
4.875 0.375 0
4.875 0.25 0
5 0.25 0
4.875 0.375 0
5 0.375 0
4.75 0.375 0
4.875 0.375 0
4.75 0.5 0
4.875 0.5 0
4.875 0.375 0
5 0.375 0
4.875 0.5 0
5 0.5 0
4 0.5 0
4.125 0.5 0
4 0.625 0
4.125 0.625 0
4.125 0.5 0
4.25 0.5 0
4.125 0.625 0
4.25 0.625 0
4 0.625 0
4.125 0.625 0
4 0.75 0
4.125 0.75 0
4.125 0.625 0
4.25 0.625 0
4.125 0.75 0
4.25 0.75 0
4.25 0.5 0
4.375 0.5 0
4.25 0.625 0
4.375 0.625 0
4.375 0.5 0
4.5 0.5 0
4.375 0.625 0
4.5 0.625 0
4.25 0.625 0
4.375 0.625 0
4.25 0.75 0
4.375 0.75 0
4.375 0.625 0
4.5 0.625 0
4.375 0.75 0
4.5 0.75 0
4 0.75 0
4.125 0.75 0
4 0.875 0
4.125 0.875 0
4.125 0.75 0
4.25 0.75 0
4.125 0.875 0
4.25 0.875 0
4 0.875 0
4.125 0.875 0
4 1 0
4.125 1 0
4.125 0.875 0
4.25 0.875 0
4.125 1 0
4.25 1 0
4.25 0.75 0
4.375 0.75 0
4.25 0.875 0
4.375 0.875 0
4.375 0.75 0
4.5 0.75 0
4.375 0.875 0
4.5 0.875 0
4.25 0.875 0
4.375 0.875 0
4.25 1 0
4.375 1 0
4.375 0.875 0
4.5 0.875 0
4.375 1 0
4.5 1 0
4.5 0.5 0
4.625 0.5 0
4.5 0.625 0
4.625 0.625 0
4.625 0.5 0
4.75 0.5 0
4.625 0.625 0
4.75 0.625 0
4.5 0.625 0
4.625 0.625 0
4.5 0.75 0
4.625 0.75 0
4.625 0.625 0
4.75 0.625 0
4.625 0.75 0
4.75 0.75 0
4.75 0.5 0
4.875 0.5 0
4.75 0.625 0
4.875 0.625 0
4.875 0.5 0
5 0.5 0
4.875 0.625 0
5 0.625 0
4.75 0.625 0
4.875 0.625 0
4.75 0.75 0
4.875 0.75 0
4.875 0.625 0
5 0.625 0
4.875 0.75 0
5 0.75 0
4.5 0.75 0
4.625 0.75 0
4.5 0.875 0
4.625 0.875 0
4.625 0.75 0
4.75 0.75 0
4.625 0.875 0
4.75 0.875 0
4.5 0.875 0
4.625 0.875 0
4.5 1 0
4.625 1 0
4.625 0.875 0
4.75 0.875 0
4.625 1 0
4.75 1 0
4.75 0.75 0
4.875 0.75 0
4.75 0.875 0
4.875 0.875 0
4.875 0.75 0
5 0.75 0
4.875 0.875 0
5 0.875 0
4.75 0.875 0
4.875 0.875 0
4.75 1 0
4.875 1 0
4.875 0.875 0
5 0.875 0
4.875 1 0
5 1 0
3 0 0
3.125 0 0
3 0.125 0
3.125 0.125 0
3.125 0 0
3.25 0 0
3.125 0.125 0
3.25 0.125 0
3 0.125 0
3.125 0.125 0
3 0.25 0
3.125 0.25 0
3.125 0.125 0
3.25 0.125 0
3.125 0.25 0
3.25 0.25 0
3.25 0 0
3.375 0 0
3.25 0.125 0
3.375 0.125 0
3.375 0 0
3.5 0 0
3.375 0.125 0
3.5 0.125 0
3.25 0.125 0
3.375 0.125 0
3.25 0.25 0
3.375 0.25 0
3.375 0.125 0
3.5 0.125 0
3.375 0.25 0
3.5 0.25 0
3 0.25 0
3.125 0.25 0
3 0.375 0
3.125 0.375 0
3.125 0.25 0
3.25 0.25 0
3.125 0.375 0
3.25 0.375 0
3 0.375 0
3.125 0.375 0
3 0.5 0
3.125 0.5 0
3.125 0.375 0
3.25 0.375 0
3.125 0.5 0
3.25 0.5 0
3.25 0.25 0
3.375 0.25 0
3.25 0.375 0
3.375 0.375 0
3.375 0.25 0
3.5 0.25 0
3.375 0.375 0
3.5 0.375 0
3.25 0.375 0
3.375 0.375 0
3.25 0.5 0
3.375 0.5 0
3.375 0.375 0
3.5 0.375 0
3.375 0.5 0
3.5 0.5 0
3.5 0 0
3.625 0 0
3.5 0.125 0
3.625 0.125 0
3.625 0 0
3.75 0 0
3.625 0.125 0
3.75 0.125 0
3.5 0.125 0
3.625 0.125 0
3.5 0.25 0
3.625 0.25 0
3.625 0.125 0
3.75 0.125 0
3.625 0.25 0
3.75 0.25 0
3.75 0 0
3.875 0 0
3.75 0.125 0
3.875 0.125 0
3.875 0 0
4 0 0
3.875 0.125 0
4 0.125 0
3.75 0.125 0
3.875 0.125 0
3.75 0.25 0
3.875 0.25 0
3.875 0.125 0
4 0.125 0
3.875 0.25 0
4 0.25 0
3.5 0.25 0
3.625 0.25 0
3.5 0.375 0
3.625 0.375 0
3.625 0.25 0
3.75 0.25 0
3.625 0.375 0
3.75 0.375 0
3.5 0.375 0
3.625 0.375 0
3.5 0.5 0
3.625 0.5 0
3.625 0.375 0
3.75 0.375 0
3.625 0.5 0
3.75 0.5 0
3.75 0.25 0
3.875 0.25 0
3.75 0.375 0
3.875 0.375 0
3.875 0.25 0
4 0.25 0
3.875 0.375 0
4 0.375 0
3.75 0.375 0
3.875 0.375 0
3.75 0.5 0
3.875 0.5 0
3.875 0.375 0
4 0.375 0
3.875 0.5 0
4 0.5 0
3 0.5 0
3.125 0.5 0
3 0.625 0
3.125 0.625 0
3.125 0.5 0
3.25 0.5 0
3.125 0.625 0
3.25 0.625 0
3 0.625 0
3.125 0.625 0
3 0.75 0
3.125 0.75 0
3.125 0.625 0
3.25 0.625 0
3.125 0.75 0
3.25 0.75 0
3.25 0.5 0
3.375 0.5 0
3.25 0.625 0
3.375 0.625 0
3.375 0.5 0
3.5 0.5 0
3.375 0.625 0
3.5 0.625 0
3.25 0.625 0
3.375 0.625 0
3.25 0.75 0
3.375 0.75 0
3.375 0.625 0
3.5 0.625 0
3.375 0.75 0
3.5 0.75 0
3 0.75 0
3.125 0.75 0
3 0.875 0
3.125 0.875 0
3.125 0.75 0
3.25 0.75 0
3.125 0.875 0
3.25 0.875 0
3 0.875 0
3.125 0.875 0
3 1 0
3.125 1 0
3.125 0.875 0
3.25 0.875 0
3.125 1 0
3.25 1 0
3.25 0.75 0
3.375 0.75 0
3.25 0.875 0
3.375 0.875 0
3.375 0.75 0
3.5 0.75 0
3.375 0.875 0
3.5 0.875 0
3.25 0.875 0
3.375 0.875 0
3.25 1 0
3.375 1 0
3.375 0.875 0
3.5 0.875 0
3.375 1 0
3.5 1 0
3.5 0.5 0
3.625 0.5 0
3.5 0.625 0
3.625 0.625 0
3.625 0.5 0
3.75 0.5 0
3.625 0.625 0
3.75 0.625 0
3.5 0.625 0
3.625 0.625 0
3.5 0.75 0
3.625 0.75 0
3.625 0.625 0
3.75 0.625 0
3.625 0.75 0
3.75 0.75 0
3.75 0.5 0
3.875 0.5 0
3.75 0.625 0
3.875 0.625 0
3.875 0.5 0
4 0.5 0
3.875 0.625 0
4 0.625 0
3.75 0.625 0
3.875 0.625 0
3.75 0.75 0
3.875 0.75 0
3.875 0.625 0
4 0.625 0
3.875 0.75 0
4 0.75 0
3.5 0.75 0
3.625 0.75 0
3.5 0.875 0
3.625 0.875 0
3.625 0.75 0
3.75 0.75 0
3.625 0.875 0
3.75 0.875 0
3.5 0.875 0
3.625 0.875 0
3.5 1 0
3.625 1 0
3.625 0.875 0
3.75 0.875 0
3.625 1 0
3.75 1 0
3.75 0.75 0
3.875 0.75 0
3.75 0.875 0
3.875 0.875 0
3.875 0.75 0
4 0.75 0
3.875 0.875 0
4 0.875 0
3.75 0.875 0
3.875 0.875 0
3.75 1 0
3.875 1 0
3.875 0.875 0
4 0.875 0
3.875 1 0
4 1 0
2 0 0
2.125 0 0
2 0.125 0
2.125 0.125 0
2.125 0 0
2.25 0 0
2.125 0.125 0
2.25 0.125 0
2 0.125 0
2.125 0.125 0
2 0.25 0
2.125 0.25 0
2.125 0.125 0
2.25 0.125 0
2.125 0.25 0
2.25 0.25 0
2.25 0 0
2.375 0 0
2.25 0.125 0
2.375 0.125 0
2.375 0 0
2.5 0 0
2.375 0.125 0
2.5 0.125 0
2.25 0.125 0
2.375 0.125 0
2.25 0.25 0
2.375 0.25 0
2.375 0.125 0
2.5 0.125 0
2.375 0.25 0
2.5 0.25 0
2 0.25 0
2.125 0.25 0
2 0.375 0
2.125 0.375 0
2.125 0.25 0
2.25 0.25 0
2.125 0.375 0
2.25 0.375 0
2 0.375 0
2.125 0.375 0
2 0.5 0
2.125 0.5 0
2.125 0.375 0
2.25 0.375 0
2.125 0.5 0
2.25 0.5 0
2.25 0.25 0
2.375 0.25 0
2.25 0.375 0
2.375 0.375 0
2.375 0.25 0
[...]
POINT_DATA 1536
VECTORS displacements double
38.7875 -45.4628 0
39.5246 -40.6628 0
34.1792 -45.684 0
34.7411 -40.8704 0
39.5246 -40.6628 0
40.2433 -35.6803 0
34.7411 -40.8704 0
35.2661 -35.8858 0
34.1792 -45.684 0
34.7411 -40.8704 0
30.1011 -45.8442 0
30.4637 -41.0139 0
34.7411 -40.8704 0
35.2661 -35.8858 0
30.4637 -41.0139 0
30.816 -36.0123 0
40.2433 -35.6803 0
40.9232 -30.5198 0
35.2661 -35.8858 0
35.7817 -30.7059 0
40.9232 -30.5198 0
41.6052 -25.1845 0
35.7817 -30.7059 0
36.2551 -25.3789 0
35.2661 -35.8858 0
35.7817 -30.7059 0
30.816 -36.0123 0
31.1375 -30.827 0
35.7817 -30.7059 0
36.2551 -25.3789 0
31.1375 -30.827 0
31.4287 -25.4658 0
30.1011 -45.8442 0
30.4637 -41.0139 0
26.1803 -45.9183 0
26.3764 -41.0979 0
30.4637 -41.0139 0
30.816 -36.0123 0
26.3764 -41.0979 0
26.5238 -36.0672 0
26.1803 -45.9183 0
26.3764 -41.0979 0
22.3422 -45.9333 0
22.3405 -41.0813 0
26.3764 -41.0979 0
26.5238 -36.0672 0
22.3405 -41.0813 0
22.3375 -36.0653 0
30.816 -36.0123 0
31.1375 -30.827 0
26.5238 -36.0672 0
26.6663 -30.861 0
31.1375 -30.827 0
31.4287 -25.4658 0
26.6663 -30.861 0
26.7777 -25.4807 0
26.5238 -36.0672 0
26.6663 -30.861 0
22.3375 -36.0653 0
22.2754 -30.8235 0
26.6663 -30.861 0
26.7777 -25.4807 0
22.2754 -30.8235 0
22.2318 -25.4299 0
41.6052 -25.1845 0
42.2605 -19.6752 0
36.2551 -25.3789 0
36.7229 -19.8335 0
42.2605 -19.6752 0
43.0081 -13.9112 0
36.7229 -19.8335 0
37.0862 -14.1297 0
36.2551 -25.3789 0
36.7229 -19.8335 0
31.4287 -25.4658 0
31.6851 -19.9108 0
36.7229 -19.8335 0
37.0862 -14.1297 0
31.6851 -19.9108 0
31.8692 -14.1415 0
43.0081 -13.9112 0
43.8319 -7.86163 0
37.0862 -14.1297 0
37.2778 -7.77846 0
43.8319 -7.86163 0
44.2664 0 0
37.2778 -7.77846 0
37.4752 -1.41708 0
37.0862 -14.1297 0
37.2778 -7.77846 0
31.8692 -14.1415 0
31.8747 -8.06617 0
37.2778 -7.77846 0
37.4752 -1.41708 0
31.8747 -8.06617 0
32.0111 -2.35645 0
31.4287 -25.4658 0
31.6851 -19.9108 0
26.7777 -25.4807 0
26.8561 -19.9265 0
31.6851 -19.9108 0
31.8692 -14.1415 0
26.8561 -19.9265 0
26.811 -14.2116 0
26.7777 -25.4807 0
26.8561 -19.9265 0
22.2318 -25.4299 0
22.1211 -19.9528 0
26.8561 -19.9265 0
26.811 -14.2116 0
22.1211 -19.9528 0
21.995 -14.3995 0
31.8692 -14.1415 0
31.8747 -8.06617 0
26.811 -14.2116 0
26.8081 -8.51194 0
31.8747 -8.06617 0
32.0111 -2.35645 0
26.8081 -8.51194 0
26.879 -2.95842 0
26.811 -14.2116 0
26.8081 -8.51194 0
21.995 -14.3995 0
21.9391 -8.85027 0
26.8081 -8.51194 0
26.879 -2.95842 0
21.9391 -8.85027 0
22.0122 -3.55297 0
22.3422 -45.9333 0
22.3405 -41.0813 0
18.5001 -45.8604 0
18.3096 -41.0193 0
22.3405 -41.0813 0
22.3375 -36.0653 0
18.3096 -41.0193 0
18.1026 -35.952 0
18.5001 -45.8604 0
18.3096 -41.0193 0
14.5568 -45.7088 0
14.1883 -40.8678 0
18.3096 -41.0193 0
18.1026 -35.952 0
14.1883 -40.8678 0
13.809 -35.84 0
22.3375 -36.0653 0
22.2754 -30.8235 0
18.1026 -35.952 0
17.9164 -30.7425 0
22.2754 -30.8235 0
22.2318 -25.4299 0
17.9164 -30.7425 0
17.6833 -25.4142 0
18.1026 -35.952 0
17.9164 -30.7425 0
13.809 -35.84 0
13.4134 -30.668 0
17.9164 -30.7425 0
17.6833 -25.4142 0
13.4134 -30.668 0
13.0619 -25.3843 0
14.5568 -45.7088 0
14.1883 -40.8678 0
10.3972 -45.5141 0
9.81414 -40.6916 0
14.1883 -40.8678 0
13.809 -35.84 0
9.81414 -40.6916 0
9.26379 -35.7093 0
10.3972 -45.5141 0
9.81414 -40.6916 0
5.85454 -45.2923 0
5.1884 -40.4855 0
9.81414 -40.6916 0
9.26379 -35.7093 0
5.1884 -40.4855 0
4.63994 -35.5853 0
13.809 -35.84 0
13.4134 -30.668 0
9.26379 -35.7093 0
8.81469 -30.573 0
13.4134 -30.668 0
13.0619 -25.3843 0
8.81469 -30.573 0
8.46859 -25.3781 0
9.26379 -35.7093 0
8.81469 -30.573 0
4.63994 -35.5853 0
4.10738 -30.5015 0
8.81469 -30.573 0
8.46859 -25.3781 0
4.10738 -30.5015 0
3.56182 -25.2686 0
22.2318 -25.4299 0
22.1211 -19.9528 0
17.6833 -25.4142 0
17.4425 -20.0035 0
22.1211 -19.9528 0
21.995 -14.3995 0
17.4425 -20.0035 0
17.2961 -14.5658 0
17.6833 -25.4142 0
17.4425 -20.0035 0
13.0619 -25.3843 0
12.8304 -20.0611 0
17.4425 -20.0035 0
17.2961 -14.5658 0
12.8304 -20.0611 0
12.6429 -14.6809 0
21.995 -14.3995 0
21.9391 -8.85027 0
17.2961 -14.5658 0
17.2289 -9.14512 0
21.9391 -8.85027 0
22.0122 -3.55297 0
17.2289 -9.14512 0
17.2957 -4.04707 0
17.2961 -14.5658 0
17.2289 -9.14512 0
12.6429 -14.6809 0
12.5635 -9.36477 0
17.2289 -9.14512 0
17.2957 -4.04707 0
12.5635 -9.36477 0
12.5896 -4.34662 0
13.0619 -25.3843 0
12.8304 -20.0611 0
8.46859 -25.3781 0
8.13919 -20.0583 0
12.8304 -20.0611 0
12.6429 -14.6809 0
8.13919 -20.0583 0
7.9002 -14.7131 0
8.46859 -25.3781 0
8.13919 -20.0583 0
3.56182 -25.2686 0
3.1345 -19.9736 0
8.13919 -20.0583 0
7.9002 -14.7131 0
3.1345 -19.9736 0
2.87194 -14.6771 0
12.6429 -14.6809 0
12.5635 -9.36477 0
7.9002 -14.7131 0
7.78256 -9.47121 0
12.5635 -9.36477 0
12.5896 -4.34662 0
7.78256 -9.47121 0
7.76252 -4.44375 0
7.9002 -14.7131 0
7.78256 -9.47121 0
2.87194 -14.6771 0
2.78387 -9.48842 0
7.78256 -9.47121 0
7.76252 -4.44375 0
2.78387 -9.48842 0
2.778 -4.45019 0
31.6667 -76.286 0
32.6842 -73.2679 0
28.8936 -76.583 0
29.6318 -73.5545 0
32.6842 -73.2679 0
33.6576 -69.9829 0
29.6318 -73.5545 0
30.3507 -70.258 0
28.8936 -76.583 0
29.6318 -73.5545 0
26.5613 -76.7783 0
27.0146 -73.7437 0
29.6318 -73.5545 0
30.3507 -70.258 0
27.0146 -73.7437 0
27.4746 -70.4383 0
33.6576 -69.9829 0
34.5944 -66.4537 0
30.3507 -70.258 0
31.0455 -66.7179 0
34.5944 -66.4537 0
35.5013 -62.6899 0
31.0455 -66.7179 0
31.7128 -62.9475 0
30.3507 -70.258 0
31.0455 -66.7179 0
27.4746 -70.4383 0
27.9386 -66.8864 0
31.0455 -66.7179 0
31.7128 -62.9475 0
27.9386 -66.8864 0
28.3989 -63.1081 0
26.5613 -76.7783 0
27.0146 -73.7437 0
24.4515 -76.8692 0
24.6256 -73.8295 0
27.0146 -73.7437 0
27.4746 -70.4383 0
24.6256 -73.8295 0
24.8208 -70.5211 0
24.4515 -76.8692 0
24.6256 -73.8295 0
22.4049 -76.8544 0
22.3164 -73.8113 0
24.6256 -73.8295 0
24.8208 -70.5211 0
22.3164 -73.8113 0
22.2654 -70.5068 0
27.4746 -70.4383 0
27.9386 -66.8864 0
24.8208 -70.5211 0
25.0377 -66.9674 0
27.9386 -66.8864 0
28.3989 -63.1081 0
25.0377 -66.9674 0
25.2697 -63.1872 0
24.8208 -70.5211 0
25.0377 -66.9674 0
22.2654 -70.5068 0
22.2446 -66.9605 0
25.0377 -66.9674 0
25.2697 -63.1872 0
22.2446 -66.9605 0
22.2453 -63.1843 0
35.5013 -62.6899 0
36.3724 -58.6959 0
31.7128 -62.9475 0
32.3632 -58.9445 0
36.3724 -58.6959 0
37.2078 -54.4879 0
32.3632 -58.9445 0
32.9947 -54.7264 0
31.7128 -62.9475 0
32.3632 -58.9445 0
28.3989 -63.1081 0
28.8467 -59.1136 0
32.3632 -58.9445 0
32.9947 -54.7264 0
28.8467 -59.1136 0
29.2812 -54.8946 0
37.2078 -54.4879 0
38.0136 -50.0763 0
32.9947 -54.7264 0
33.599 -50.3063 0
38.0136 -50.0763 0
38.7875 -45.4628 0
33.599 -50.3063 0
34.1792 -45.684 0
32.9947 -54.7264 0
33.599 -50.3063 0
29.2812 -54.8946 0
29.6997 -50.4658 0
33.599 -50.3063 0
34.1792 -45.684 0
29.6997 -50.4658 0
30.1011 -45.8442 0
28.3989 -63.1081 0
28.8467 -59.1136 0
25.2697 -63.1872 0
25.5101 -59.191 0
28.8467 -59.1136 0
29.2812 -54.8946 0
25.5101 -59.191 0
25.7486 -54.9845 0
25.2697 -63.1872 0
25.5101 -59.191 0
22.2453 -63.1843 0
22.2617 -59.1903 0
25.5101 -59.191 0
25.7486 -54.9845 0
22.2617 -59.1903 0
22.2914 -54.9841 0
29.2812 -54.8946 0
29.6997 -50.4658 0
25.7486 -54.9845 0
25.9736 -50.5589 0
29.6997 -50.4658 0
30.1011 -45.8442 0
25.9736 -50.5589 0
26.1803 -45.9183 0
25.7486 -54.9845 0
25.9736 -50.5589 0
22.2914 -54.9841 0
22.325 -50.5672 0
25.9736 -50.5589 0
26.1803 -45.9183 0
22.325 -50.5672 0
22.3422 -45.9333 0
22.4049 -76.8544 0
22.3164 -73.8113 0
20.3232 -76.7399 0
20.001 -73.6958 0
22.3164 -73.8113 0
22.2654 -70.5068 0
20.001 -73.6958 0
19.719 -70.4069 0
20.3232 -76.7399 0
20.001 -73.6958 0
18.1476 -76.5373 0
17.6082 -73.5099 0
20.001 -73.6958 0
19.719 -70.4069 0
17.6082 -73.5099 0
17.0991 -70.2388 0
22.2654 -70.5068 0
22.2446 -66.9605 0
19.719 -70.4069 0
19.469 -66.8756 0
22.2446 -66.9605 0
22.2453 -63.1843 0
19.469 -66.8756 0
19.243 -63.1107 0
19.719 -70.4069 0
19.469 -66.8756 0
17.0991 -70.2388 0
16.6191 -66.7254 0
19.469 -66.8756 0
19.243 -63.1107 0
16.6191 -66.7254 0
16.165 -62.9724 0
18.1476 -76.5373 0
17.6082 -73.5099 0
15.7625 -76.2926 0
15.0014 -73.2754 0
17.6082 -73.5099 0
17.0991 -70.2388 0
15.0014 -73.2754 0
14.268 -70.0177 0
15.7625 -76.2926 0
15.0014 -73.2754 0
12.9329 -75.9958 0
11.9419 -72.9865 0
15.0014 -73.2754 0
14.268 -70.0177 0
11.9419 -72.9865 0
10.9742 -69.7377 0
17.0991 -70.2388 0
16.6191 -66.7254 0
14.268 -70.0177 0
13.5615 -66.517 0
16.6191 -66.7254 0
16.165 -62.9724 0
13.5615 -66.517 0
12.8816 -62.7749 0
14.268 -70.0177 0
13.5615 -66.517 0
10.9742 -69.7377 0
10.0332 -66.2463 0
13.5615 -66.517 0
12.8816 -62.7749 0
10.0332 -66.2463 0
9.12204 -62.5138 0
22.2453 -63.1843 0
22.2617 -59.1903 0
19.243 -63.1107 0
19.036 -59.1191 0
22.2617 -59.1903 0
22.2914 -54.9841 0
19.036 -59.1191 0
18.844 -54.9099 0
19.243 -63.1107 0
19.036 -59.1191 0
16.165 -62.9724 0
15.7334 -58.9865 0
19.036 -59.1191 0
18.844 -54.9099 0
15.7334 -58.9865 0
15.3233 -54.7746 0
22.2914 -54.9841 0
22.325 -50.5672 0
18.844 -54.9099 0
18.6686 -50.4905 0
22.325 -50.5672 0
22.3422 -45.9333 0
18.6686 -50.4905 0
18.5001 -45.8604 0
18.844 -54.9099 0
18.6686 -50.4905 0
15.3233 -54.7746 0
14.9317 -50.345 0
18.6686 -50.4905 0
18.5001 -45.8604 0
14.9317 -50.345 0
14.5568 -45.7088 0
16.165 -62.9724 0
15.7334 -58.9865 0
12.8816 -62.7749 0
12.2275 -58.7953 0
15.7334 -58.9865 0
15.3233 -54.7746 0
12.2275 -58.7953 0
11.5973 -54.585 0
12.8816 -62.7749 0
12.2275 -58.7953 0
9.12204 -62.5138 0
8.24363 -58.5439 0
12.2275 -58.7953 0
11.5973 -54.585 0
8.24363 -58.5439 0
7.40169 -54.3434 0
15.3233 -54.7746 0
14.9317 -50.345 0
11.5973 -54.585 0
10.9894 -50.1537 0
14.9317 -50.345 0
14.5568 -45.7088 0
10.9894 -50.1537 0
10.3972 -45.5141 0
11.5973 -54.585 0
10.9894 -50.1537 0
7.40169 -54.3434 0
6.60129 -49.9214 0
10.9894 -50.1537 0
10.3972 -45.5141 0
6.60129 -49.9214 0
5.85454 -45.2923 0
22.1332 -88.2218 0
23.4141 -88.0226 0
22.1332 -88.5912 0
23.0398 -88.3903 0
23.4141 -88.0226 0
24.6821 -87.4315 0
23.0398 -88.3903 0
23.9433 -87.7943 0
22.1332 -88.5912 0
23.0398 -88.3903 0
22.1332 -89.061 0
22.873 -88.835 0
23.0398 -88.3903 0
23.9433 -87.7943 0
22.873 -88.835 0
23.5574 -88.1705 0
24.6821 -87.4315 0
25.9271 -86.4647 0
23.9433 -87.7943 0
24.8381 -86.8198 0
25.9271 -86.4647 0
27.1457 -85.1365 0
24.8381 -86.8198 0
25.7107 -85.4815 0
23.9433 -87.7943 0
24.8381 -86.8198 0
23.5574 -88.1705 0
24.1561 -87.1329 0
24.8381 -86.8198 0
25.7107 -85.4815 0
24.1561 -87.1329 0
24.6837 -85.7549 0
22.1332 -89.061 0
22.873 -88.835 0
22.1332 -89.5974 0
22.6812 -89.3516 0
22.873 -88.835 0
23.5574 -88.1705 0
22.6812 -89.3516 0
23.1636 -88.6393 0
22.1332 -89.5974 0
22.6812 -89.3516 0
22.1332 -90.1245 0
22.4726 -89.8607 0
22.6812 -89.3516 0
23.1636 -88.6393 0
22.4726 -89.8607 0
22.7304 -89.0824 0
23.5574 -88.1705 0
24.1561 -87.1329 0
23.1636 -88.6393 0
23.5298 -87.5015 0
24.1561 -87.1329 0
24.6837 -85.7549 0
23.5298 -87.5015 0
23.8041 -86.0313 0
23.1636 -88.6393 0
23.5298 -87.5015 0
22.7304 -89.0824 0
22.8554 -87.8378 0
23.5298 -87.5015 0
23.8041 -86.0313 0
22.8554 -87.8378 0
22.8601 -86.2331 0
27.1457 -85.1365 0
28.3364 -83.447 0
25.7107 -85.4815 0
26.5486 -83.7818 0
28.3364 -83.447 0
29.4886 -81.3998 0
26.5486 -83.7818 0
27.3598 -81.7208 0
25.7107 -85.4815 0
26.5486 -83.7818 0
24.6837 -85.7549 0
25.188 -84.0263 0
26.5486 -83.7818 0
27.3598 -81.7208 0
25.188 -84.0263 0
25.6603 -81.9481 0
29.4886 -81.3998 0
30.6012 -79.0074 0
27.3598 -81.7208 0
28.1373 -79.3178 0
30.6012 -79.0074 0
31.6667 -76.286 0
28.1373 -79.3178 0
28.8936 -76.583 0
27.3598 -81.7208 0
28.1373 -79.3178 0
25.6603 -81.9481 0
26.1063 -79.5196 0
28.1373 -79.3178 0
28.8936 -76.583 0
26.1063 -79.5196 0
26.5613 -76.7783 0
24.6837 -85.7549 0
25.188 -84.0263 0
23.8041 -86.0313 0
24.0008 -84.2133 0
25.188 -84.0263 0
25.6603 -81.9481 0
24.0008 -84.2133 0
24.1485 -82.0721 0
23.8041 -86.0313 0
24.0008 -84.2133 0
22.8601 -86.2331 0
22.782 -84.3094 0
24.0008 -84.2133 0
24.1485 -82.0721 0
22.782 -84.3094 0
22.6564 -82.1019 0
25.6603 -81.9481 0
26.1063 -79.5196 0
24.1485 -82.0721 0
24.2975 -79.6167 0
26.1063 -79.5196 0
26.5613 -76.7783 0
24.2975 -79.6167 0
24.4515 -76.8692 0
24.1485 -82.0721 0
24.2975 -79.6167 0
22.6564 -82.1019 0
22.5233 -79.6209 0
24.2975 -79.6167 0
24.4515 -76.8692 0
22.5233 -79.6209 0
22.4049 -76.8544 0
22.1332 -90.1245 0
22.4726 -89.8607 0
22.1332 -90.6522 0
22.2377 -90.3494 0
22.4726 -89.8607 0
22.7304 -89.0824 0
22.2377 -90.3494 0
22.2406 -89.4653 0
22.1332 -90.6522 0
22.2377 -90.3494 0
22.1332 -91.1575 0
21.9176 -90.813 0
22.2377 -90.3494 0
22.2406 -89.4653 0
21.9176 -90.813 0
21.5982 -89.6696 0
22.7304 -89.0824 0
22.8554 -87.8378 0
22.2406 -89.4653 0
22.0756 -88.0519 0
22.8554 -87.8378 0
22.8601 -86.2331 0
22.0756 -88.0519 0
21.8085 -86.3162 0
22.2406 -89.4653 0
22.0756 -88.0519 0
21.5982 -89.6696 0
21.1383 -88.1053 0
22.0756 -88.0519 0
21.8085 -86.3162 0
21.1383 -88.1053 0
20.5701 -86.2635 0
22.1332 -91.1575 0
21.9176 -90.813 0
22.1332 -91.6629 0
21.5144 -91.0094 0
21.9176 -90.813 0
21.5982 -89.6696 0
21.5144 -91.0094 0
20.7468 -89.6278 0
22.1332 -91.6629 0
21.5144 -91.0094 0
22.1332 -91.6403 0
20.6493 -90.8595 0
21.5144 -91.0094 0
20.7468 -89.6278 0
20.6493 -90.8595 0
19.3644 -89.3034 0
21.5982 -89.6696 0
21.1383 -88.1053 0
20.7468 -89.6278 0
19.8962 -87.9663 0
21.1383 -88.1053 0
20.5701 -86.2635 0
19.8962 -87.9663 0
19.0388 -86.0782 0
20.7468 -89.6278 0
19.8962 -87.9663 0
19.3644 -89.3034 0
18.2079 -87.6446 0
19.8962 -87.9663 0
19.0388 -86.0782 0
18.2079 -87.6446 0
17.1038 -85.7569 0
22.8601 -86.2331 0
22.782 -84.3094 0
21.8085 -86.3162 0
21.4542 -84.3044 0
22.782 -84.3094 0
22.6564 -82.1019 0
21.4542 -84.3044 0
21.0719 -82.0442 0
21.8085 -86.3162 0
21.4542 -84.3044 0
20.5701 -86.2635 0
19.9642 -84.194 0
21.4542 -84.3044 0
21.0719 -82.0442 0
19.9642 -84.194 0
19.336 -81.8867 0
22.6564 -82.1019 0
22.5233 -79.6209 0
21.0719 -82.0442 0
20.686 -79.5269 0
22.5233 -79.6209 0
22.4049 -76.8544 0
20.686 -79.5269 0
20.3232 -76.7399 0
21.0719 -82.0442 0
20.686 -79.5269 0
19.336 -81.8867 0
18.7216 -79.3271 0
20.686 -79.5269 0
20.3232 -76.7399 0
18.7216 -79.3271 0
18.1476 -76.5373 0
20.5701 -86.2635 0
19.9642 -84.194 0
19.0388 -86.0782 0
18.1922 -83.9663 0
19.9642 -84.194 0
19.336 -81.8867 0
18.1922 -83.9663 0
17.3617 -81.6328 0
19.0388 -86.0782 0
18.1922 -83.9663 0
17.1038 -85.7569 0
16.0288 -83.65 0
18.1922 -83.9663 0
17.3617 -81.6328 0
16.0288 -83.65 0
14.9762 -81.3221 0
19.336 -81.8867 0
18.7216 -79.3271 0
17.3617 -81.6328 0
16.5504 -79.0761 0
18.7216 -79.3271 0
18.1476 -76.5373 0
16.5504 -79.0761 0
15.7625 -76.2926 0
17.3617 -81.6328 0
16.5504 -79.0761 0
14.9762 -81.3221 0
13.9445 -78.772 0
16.5504 -79.0761 0
15.7625 -76.2926 0
13.9445 -78.772 0
12.9329 -75.9958 0
12.5997 -76.286 0
13.6652 -79.0074 0
15.3728 -76.583 0
16.1291 -79.3178 0
13.6652 -79.0074 0
14.7778 -81.3998 0
16.1291 -79.3178 0
16.9065 -81.7208 0
15.3728 -76.583 0
16.1291 -79.3178 0
17.7051 -76.7783 0
18.1601 -79.5196 0
16.1291 -79.3178 0
16.9065 -81.7208 0
18.1601 -79.5196 0
18.6061 -81.9481 0
14.7778 -81.3998 0
15.93 -83.447 0
16.9065 -81.7208 0
17.7178 -83.7818 0
15.93 -83.447 0
17.1207 -85.1365 0
17.7178 -83.7818 0
18.5556 -85.4815 0
16.9065 -81.7208 0
17.7178 -83.7818 0
18.6061 -81.9481 0
19.0784 -84.0263 0
17.7178 -83.7818 0
18.5556 -85.4815 0
19.0784 -84.0263 0
19.5826 -85.7549 0
17.7051 -76.7783 0
18.1601 -79.5196 0
19.8149 -76.8692 0
19.9689 -79.6167 0
18.1601 -79.5196 0
18.6061 -81.9481 0
19.9689 -79.6167 0
20.1179 -82.0721 0
19.8149 -76.8692 0
19.9689 -79.6167 0
21.8615 -76.8544 0
21.7431 -79.6209 0
19.9689 -79.6167 0
20.1179 -82.0721 0
21.7431 -79.6209 0
21.6099 -82.1019 0
18.6061 -81.9481 0
19.0784 -84.0263 0
20.1179 -82.0721 0
20.2656 -84.2133 0
19.0784 -84.0263 0
19.5826 -85.7549 0
20.2656 -84.2133 0
20.4623 -86.0313 0
20.1179 -82.0721 0
20.2656 -84.2133 0
21.6099 -82.1019 0
21.4843 -84.3094 0
20.2656 -84.2133 0
20.4623 -86.0313 0
21.4843 -84.3094 0
21.4063 -86.2331 0
17.1207 -85.1365 0
18.3392 -86.4647 0
18.5556 -85.4815 0
19.4283 -86.8198 0
18.3392 -86.4647 0
19.5843 -87.4315 0
19.4283 -86.8198 0
20.3231 -87.7943 0
18.5556 -85.4815 0
19.4283 -86.8198 0
19.5826 -85.7549 0
20.1102 -87.1329 0
19.4283 -86.8198 0
20.3231 -87.7943 0
20.1102 -87.1329 0
20.709 -88.1705 0
19.5843 -87.4315 0
20.8523 -88.0226 0
20.3231 -87.7943 0
21.2266 -88.3903 0
20.8523 -88.0226 0
22.1332 -88.2218 0
21.2266 -88.3903 0
22.1332 -88.5912 0
20.3231 -87.7943 0
21.2266 -88.3903 0
20.709 -88.1705 0
21.3933 -88.835 0
21.2266 -88.3903 0
22.1332 -88.5912 0
21.3933 -88.835 0
22.1332 -89.061 0
19.5826 -85.7549 0
20.1102 -87.1329 0
20.4623 -86.0313 0
20.7366 -87.5015 0
20.1102 -87.1329 0
20.709 -88.1705 0
20.7366 -87.5015 0
21.1027 -88.6393 0
20.4623 -86.0313 0
20.7366 -87.5015 0
21.4063 -86.2331 0
21.4109 -87.8378 0
20.7366 -87.5015 0
21.1027 -88.6393 0
21.4109 -87.8378 0
21.5359 -89.0824 0
20.709 -88.1705 0
21.3933 -88.835 0
21.1027 -88.6393 0
21.5851 -89.3516 0
21.3933 -88.835 0
22.1332 -89.061 0
21.5851 -89.3516 0
22.1332 -89.5974 0
21.1027 -88.6393 0
21.5851 -89.3516 0
21.5359 -89.0824 0
21.7938 -89.8607 0
21.5851 -89.3516 0
22.1332 -89.5974 0
21.7938 -89.8607 0
22.1332 -90.1245 0
21.8615 -76.8544 0
21.7431 -79.6209 0
23.9432 -76.7399 0
23.5804 -79.5269 0
21.7431 -79.6209 0
21.6099 -82.1019 0
23.5804 -79.5269 0
23.1944 -82.0442 0
23.9432 -76.7399 0
23.5804 -79.5269 0
26.1188 -76.5373 0
25.5448 -79.3271 0
23.5804 -79.5269 0
23.1944 -82.0442 0
25.5448 -79.3271 0
24.9304 -81.8867 0
21.6099 -82.1019 0
21.4843 -84.3094 0
23.1944 -82.0442 0
22.8121 -84.3044 0
21.4843 -84.3094 0
21.4063 -86.2331 0
22.8121 -84.3044 0
22.4579 -86.3162 0
23.1944 -82.0442 0
22.8121 -84.3044 0
24.9304 -81.8867 0
24.3022 -84.194 0
22.8121 -84.3044 0
22.4579 -86.3162 0
24.3022 -84.194 0
23.6963 -86.2635 0
26.1188 -76.5373 0
25.5448 -79.3271 0
28.5039 -76.2926 0
27.716 -79.0761 0
25.5448 -79.3271 0
24.9304 -81.8867 0
27.716 -79.0761 0
26.9047 -81.6328 0
28.5039 -76.2926 0
27.716 -79.0761 0
31.3335 -75.9958 0
30.3218 -78.772 0
27.716 -79.0761 0
26.9047 -81.6328 0
30.3218 -78.772 0
29.2901 -81.3221 0
24.9304 -81.8867 0
24.3022 -84.194 0
26.9047 -81.6328 0
26.0742 -83.9663 0
24.3022 -84.194 0
23.6963 -86.2635 0
26.0742 -83.9663 0
25.2276 -86.0782 0
26.9047 -81.6328 0
26.0742 -83.9663 0
29.2901 -81.3221 0
28.2376 -83.65 0
26.0742 -83.9663 0
25.2276 -86.0782 0
28.2376 -83.65 0
27.1625 -85.7569 0
21.4063 -86.2331 0
21.4109 -87.8378 0
22.4579 -86.3162 0
22.1908 -88.0519 0
21.4109 -87.8378 0
21.5359 -89.0824 0
22.1908 -88.0519 0
22.0258 -89.4653 0
22.4579 -86.3162 0
22.1908 -88.0519 0
23.6963 -86.2635 0
23.1281 -88.1053 0
22.1908 -88.0519 0
22.0258 -89.4653 0
23.1281 -88.1053 0
22.6681 -89.6696 0
21.5359 -89.0824 0
21.7938 -89.8607 0
22.0258 -89.4653 0
22.0287 -90.3494 0
21.7938 -89.8607 0
22.1332 -90.1245 0
22.0287 -90.3494 0
22.1332 -90.6522 0
22.0258 -89.4653 0
22.0287 -90.3494 0
22.6681 -89.6696 0
22.3488 -90.813 0
22.0287 -90.3494 0
22.1332 -90.6522 0
22.3488 -90.813 0
22.1332 -91.1575 0
23.6963 -86.2635 0
23.1281 -88.1053 0
25.2276 -86.0782 0
24.3702 -87.9663 0
23.1281 -88.1053 0
22.6681 -89.6696 0
24.3702 -87.9663 0
23.5195 -89.6278 0
25.2276 -86.0782 0
24.3702 -87.9663 0
27.1625 -85.7569 0
26.0584 -87.6446 0
24.3702 -87.9663 0
23.5195 -89.6278 0
26.0584 -87.6446 0
24.902 -89.3034 0
22.6681 -89.6696 0
22.3488 -90.813 0
23.5195 -89.6278 0
22.752 -91.0094 0
22.3488 -90.813 0
22.1332 -91.1575 0
22.752 -91.0094 0
22.1332 -91.6629 0
23.5195 -89.6278 0
22.752 -91.0094 0
24.902 -89.3034 0
23.6171 -90.8595 0
22.752 -91.0094 0
22.1332 -91.6629 0
23.6171 -90.8595 0
22.1332 -91.6403 0
5.47887 -45.4628 0
6.25278 -50.0763 0
10.0872 -45.684 0
10.6674 -50.3063 0
6.25278 -50.0763 0
7.05862 -54.4879 0
10.6674 -50.3063 0
11.2717 -54.7264 0
10.0872 -45.684 0
10.6674 -50.3063 0
14.1653 -45.8442 0
14.5667 -50.4658 0
10.6674 -50.3063 0
11.2717 -54.7264 0
14.5667 -50.4658 0
14.9852 -54.8946 0
7.05862 -54.4879 0
7.89398 -58.6959 0
11.2717 -54.7264 0
11.9032 -58.9445 0
7.89398 -58.6959 0
8.76504 -62.6899 0
11.9032 -58.9445 0
12.5536 -62.9475 0
11.2717 -54.7264 0
11.9032 -58.9445 0
14.9852 -54.8946 0
15.4196 -59.1136 0
11.9032 -58.9445 0
12.5536 -62.9475 0
15.4196 -59.1136 0
15.8675 -63.1081 0
14.1653 -45.8442 0
14.5667 -50.4658 0
18.0861 -45.9183 0
18.2927 -50.5589 0
14.5667 -50.4658 0