# vtk DataFile Version 3.0
#This file was generated by the deal.II library on 2020/9/2 at 8:40:25
ASCII
DATASET UNSTRUCTURED_GRID

POINTS 1536 double
5 0 0
5.125 0 0
5 0.125 0
5.125 0.125 0
5.125 0 0
5.25 0 0
5.125 0.125 0
5.25 0.125 0
5 0.125 0
5.125 0.125 0
5 0.25 0
5.125 0.25 0
5.125 0.125 0
5.25 0.125 0
5.125 0.25 0
5.25 0.25 0
5.25 0 0
5.375 0 0
5.25 0.125 0
5.375 0.125 0
5.375 0 0
5.5 0 0
5.375 0.125 0
5.5 0.125 0
5.25 0.125 0
5.375 0.125 0
5.25 0.25 0
5.375 0.25 0
5.375 0.125 0
5.5 0.125 0
5.375 0.25 0
5.5 0.25 0
5 0.25 0
5.125 0.25 0
5 0.375 0
5.125 0.375 0
5.125 0.25 0
5.25 0.25 0
5.125 0.375 0
5.25 0.375 0
5 0.375 0
5.125 0.375 0
5 0.5 0
5.125 0.5 0
5.125 0.375 0
5.25 0.375 0
5.125 0.5 0
5.25 0.5 0
5.25 0.25 0
5.375 0.25 0
5.25 0.375 0
5.375 0.375 0
5.375 0.25 0
5.5 0.25 0
5.375 0.375 0
5.5 0.375 0
5.25 0.375 0
5.375 0.375 0
5.25 0.5 0
5.375 0.5 0
5.375 0.375 0
5.5 0.375 0
5.375 0.5 0
5.5 0.5 0
5.5 0 0
5.625 0 0
5.5 0.125 0
5.625 0.125 0
5.625 0 0
5.75 0 0
5.625 0.125 0
5.75 0.125 0
5.5 0.125 0
5.625 0.125 0
5.5 0.25 0
5.625 0.25 0
5.625 0.125 0
5.75 0.125 0
5.625 0.25 0
5.75 0.25 0
5.75 0 0
5.875 0 0
5.75 0.125 0
5.875 0.125 0
5.875 0 0
6 0 0
5.875 0.125 0
6 0.125 0
5.75 0.125 0
5.875 0.125 0
5.75 0.25 0
5.875 0.25 0
5.875 0.125 0
6 0.125 0
5.875 0.25 0
6 0.25 0
5.5 0.25 0
5.625 0.25 0
5.5 0.375 0
5.625 0.375 0
5.625 0.25 0
5.75 0.25 0
5.625 0.375 0
5.75 0.375 0
5.5 0.375 0
5.625 0.375 0
5.5 0.5 0
5.625 0.5 0
5.625 0.375 0
5.75 0.375 0
5.625 0.5 0
5.75 0.5 0
5.75 0.25 0
5.875 0.25 0
5.75 0.375 0
5.875 0.375 0
5.875 0.25 0
6 0.25 0
5.875 0.375 0
6 0.375 0
5.75 0.375 0
5.875 0.375 0
5.75 0.5 0
5.875 0.5 0
5.875 0.375 0
6 0.375 0
5.875 0.5 0
6 0.5 0
5 0.5 0
5.125 0.5 0
5 0.625 0
5.125 0.625 0
5.125 0.5 0
5.25 0.5 0
5.125 0.625 0
5.25 0.625 0
5 0.625 0
5.125 0.625 0
5 0.75 0
5.125 0.75 0
5.125 0.625 0
5.25 0.625 0
5.125 0.75 0
5.25 0.75 0
5.25 0.5 0
5.375 0.5 0
5.25 0.625 0
5.375 0.625 0
5.375 0.5 0
5.5 0.5 0
5.375 0.625 0
5.5 0.625 0
5.25 0.625 0
5.375 0.625 0
5.25 0.75 0
5.375 0.75 0
5.375 0.625 0
5.5 0.625 0
5.375 0.75 0
5.5 0.75 0
5 0.75 0
5.125 0.75 0
5 0.875 0
5.125 0.875 0
5.125 0.75 0
5.25 0.75 0
5.125 0.875 0
5.25 0.875 0
5 0.875 0
5.125 0.875 0
5 1 0
5.125 1 0
5.125 0.875 0
5.25 0.875 0
5.125 1 0
5.25 1 0
5.25 0.75 0
5.375 0.75 0
5.25 0.875 0
5.375 0.875 0
5.375 0.75 0
5.5 0.75 0
5.375 0.875 0
5.5 0.875 0
5.25 0.875 0
5.375 0.875 0
5.25 1 0
5.375 1 0
5.375 0.875 0
5.5 0.875 0
5.375 1 0
5.5 1 0
5.5 0.5 0
5.625 0.5 0
5.5 0.625 0
5.625 0.625 0
5.625 0.5 0
5.75 0.5 0
5.625 0.625 0
5.75 0.625 0
5.5 0.625 0
5.625 0.625 0
5.5 0.75 0
5.625 0.75 0
5.625 0.625 0
5.75 0.625 0
5.625 0.75 0
5.75 0.75 0
5.75 0.5 0
5.875 0.5 0
5.75 0.625 0
5.875 0.625 0
5.875 0.5 0
6 0.5 0
5.875 0.625 0
6 0.625 0
5.75 0.625 0
5.875 0.625 0
5.75 0.75 0
5.875 0.75 0
5.875 0.625 0
6 0.625 0
5.875 0.75 0
6 0.75 0
5.5 0.75 0
5.625 0.75 0
5.5 0.875 0
5.625 0.875 0
5.625 0.75 0
5.75 0.75 0
5.625 0.875 0
5.75 0.875 0
5.5 0.875 0
5.625 0.875 0
5.5 1 0
5.625 1 0
5.625 0.875 0
5.75 0.875 0
5.625 1 0
5.75 1 0
5.75 0.75 0
5.875 0.75 0
5.75 0.875 0
5.875 0.875 0
5.875 0.75 0
6 0.75 0
5.875 0.875 0
6 0.875 0
5.75 0.875 0
5.875 0.875 0
5.75 1 0
5.875 1 0
5.875 0.875 0
6 0.875 0
5.875 1 0
6 1 0
4 0 0
4.125 0 0
4 0.125 0
4.125 0.125 0
4.125 0 0
4.25 0 0
4.125 0.125 0
4.25 0.125 0
4 0.125 0
4.125 0.125 0
4 0.25 0
4.125 0.25 0
4.125 0.125 0
4.25 0.125 0
4.125 0.25 0
4.25 0.25 0
4.25 0 0
4.375 0 0
4.25 0.125 0
4.375 0.125 0
4.375 0 0
4.5 0 0
4.375 0.125 0
4.5 0.125 0
4.25 0.125 0
4.375 0.125 0
4.25 0.25 0
4.375 0.25 0
4.375 0.125 0
4.5 0.125 0
4.375 0.25 0
4.5 0.25 0
4 0.25 0
4.125 0.25 0
4 0.375 0
4.125 0.375 0
4.125 0.25 0
4.25 0.25 0
4.125 0.375 0
4.25 0.375 0
4 0.375 0
4.125 0.375 0
4 0.5 0
4.125 0.5 0
4.125 0.375 0
4.25 0.375 0
4.125 0.5 0
4.25 0.5 0
4.25 0.25 0
4.375 0.25 0
4.25 0.375 0
4.375 0.375 0
4.375 0.25 0
4.5 0.25 0
4.375 0.375 0
4.5 0.375 0
4.25 0.375 0
4.375 0.375 0
4.25 0.5 0
4.375 0.5 0
4.375 0.375 0
4.5 0.375 0
4.375 0.5 0
4.5 0.5 0
4.5 0 0
4.625 0 0
4.5 0.125 0
4.625 0.125 0
4.625 0 0
4.75 0 0
4.625 0.125 0
4.75 0.125 0
4.5 0.125 0
4.625 0.125 0
4.5 0.25 0
4.625 0.25 0
4.625 0.125 0
4.75 0.125 0
4.625 0.25 0
4.75 0.25 0
4.75 0 0
4.875 0 0
4.75 0.125 0
4.875 0.125 0
4.875 0 0
5 0 0
4.875 0.125 0
5 0.125 0
4.75 0.125 0
4.875 0.125 0
4.75 0.25 0
4.875 0.25 0
4.875 0.125 0
5 0.125 0
4.875 0.25 0
5 0.25 0
4.5 0.25 0
4.625 0.25 0
4.5 0.375 0
4.625 0.375 0
4.625 0.25 0
4.75 0.25 0
4.625 0.375 0
4.75 0.375 0
4.5 0.375 0
4.625 0.375 0
4.5 0.5 0
4.625 0.5 0
4.625 0.375 0
4.75 0.375 0
4.625 0.5 0
4.75 0.5 0
4.75 0.25 0
4.875 0.25 0
4.75 0.375 0
4.875 0.375 0
4.875 0.25 0
5 0.25 0
4.875 0.375 0
5 0.375 0
4.75 0.375 0
4.875 0.375 0
4.75 0.5 0
4.875 0.5 0
4.875 0.375 0
5 0.375 0
4.875 0.5 0
5 0.5 0
4 0.5 0
4.125 0.5 0
4 0.625 0
4.125 0.625 0
4.125 0.5 0
4.25 0.5 0
4.125 0.625 0
4.25 0.625 0
4 0.625 0
4.125 0.625 0
4 0.75 0
4.125 0.75 0
4.125 0.625 0
4.25 0.625 0
4.125 0.75 0
4.25 0.75 0
4.25 0.5 0
4.375 0.5 0
4.25 0.625 0
4.375 0.625 0
4.375 0.5 0
4.5 0.5 0
4.375 0.625 0
4.5 0.625 0
4.25 0.625 0
4.375 0.625 0
4.25 0.75 0
4.375 0.75 0
4.375 0.625 0
4.5 0.625 0
4.375 0.75 0
4.5 0.75 0
4 0.75 0
4.125 0.75 0
4 0.875 0
4.125 0.875 0
4.125 0.75 0
4.25 0.75 0
4.125 0.875 0
4.25 0.875 0
4 0.875 0
4.125 0.875 0
4 1 0
4.125 1 0
4.125 0.875 0
4.25 0.875 0
4.125 1 0
4.25 1 0
4.25 0.75 0
4.375 0.75 0
4.25 0.875 0
4.375 0.875 0
4.375 0.75 0
4.5 0.75 0
4.375 0.875 0
4.5 0.875 0
4.25 0.875 0
4.375 0.875 0
4.25 1 0
4.375 1 0
4.375 0.875 0
4.5 0.875 0
4.375 1 0
4.5 1 0
4.5 0.5 0
4.625 0.5 0
4.5 0.625 0
4.625 0.625 0
4.625 0.5 0
4.75 0.5 0
4.625 0.625 0
4.75 0.625 0
4.5 0.625 0
4.625 0.625 0
4.5 0.75 0
4.625 0.75 0
4.625 0.625 0
4.75 0.625 0
4.625 0.75 0
4.75 0.75 0
4.75 0.5 0
4.875 0.5 0
4.75 0.625 0
4.875 0.625 0
4.875 0.5 0
5 0.5 0
4.875 0.625 0
5 0.625 0
4.75 0.625 0
4.875 0.625 0
4.75 0.75 0
4.875 0.75 0
4.875 0.625 0
5 0.625 0
4.875 0.75 0
5 0.75 0
4.5 0.75 0
4.625 0.75 0
4.5 0.875 0
4.625 0.875 0
4.625 0.75 0
4.75 0.75 0
4.625 0.875 0
4.75 0.875 0
4.5 0.875 0
4.625 0.875 0
4.5 1 0
4.625 1 0
4.625 0.875 0
4.75 0.875 0
4.625 1 0
4.75 1 0
4.75 0.75 0
4.875 0.75 0
4.75 0.875 0
4.875 0.875 0
4.875 0.75 0
5 0.75 0
4.875 0.875 0
5 0.875 0
4.75 0.875 0
4.875 0.875 0
4.75 1 0
4.875 1 0
4.875 0.875 0
5 0.875 0
4.875 1 0
5 1 0
3 0 0
3.125 0 0
3 0.125 0
3.125 0.125 0
3.125 0 0
3.25 0 0
3.125 0.125 0
3.25 0.125 0
3 0.125 0
3.125 0.125 0
3 0.25 0
3.125 0.25 0
3.125 0.125 0
3.25 0.125 0
3.125 0.25 0
3.25 0.25 0
3.25 0 0
3.375 0 0
3.25 0.125 0
3.375 0.125 0
3.375 0 0
3.5 0 0
3.375 0.125 0
3.5 0.125 0
3.25 0.125 0
3.375 0.125 0
3.25 0.25 0
3.375 0.25 0
3.375 0.125 0
3.5 0.125 0
3.375 0.25 0
3.5 0.25 0
3 0.25 0
3.125 0.25 0
3 0.375 0
3.125 0.375 0
3.125 0.25 0
3.25 0.25 0
3.125 0.375 0
3.25 0.375 0
3 0.375 0
3.125 0.375 0
3 0.5 0
3.125 0.5 0
3.125 0.375 0
3.25 0.375 0
3.125 0.5 0
3.25 0.5 0
3.25 0.25 0
3.375 0.25 0
3.25 0.375 0
3.375 0.375 0
3.375 0.25 0
3.5 0.25 0
3.375 0.375 0
3.5 0.375 0
3.25 0.375 0
3.375 0.375 0
3.25 0.5 0
3.375 0.5 0
3.375 0.375 0
3.5 0.375 0
3.375 0.5 0
3.5 0.5 0
3.5 0 0
3.625 0 0
3.5 0.125 0
3.625 0.125 0
3.625 0 0
3.75 0 0
3.625 0.125 0
3.75 0.125 0
3.5 0.125 0
3.625 0.125 0
3.5 0.25 0
3.625 0.25 0
3.625 0.125 0
3.75 0.125 0
3.625 0.25 0
3.75 0.25 0
3.75 0 0
3.875 0 0
3.75 0.125 0
3.875 0.125 0
3.875 0 0
4 0 0
3.875 0.125 0
4 0.125 0
3.75 0.125 0
3.875 0.125 0
3.75 0.25 0
3.875 0.25 0
3.875 0.125 0
4 0.125 0
3.875 0.25 0
4 0.25 0
3.5 0.25 0
3.625 0.25 0
3.5 0.375 0
3.625 0.375 0
3.625 0.25 0
3.75 0.25 0
3.625 0.375 0
3.75 0.375 0
3.5 0.375 0
3.625 0.375 0
3.5 0.5 0
3.625 0.5 0
3.625 0.375 0
3.75 0.375 0
3.625 0.5 0
3.75 0.5 0
3.75 0.25 0
3.875 0.25 0
3.75 0.375 0
3.875 0.375 0
3.875 0.25 0
4 0.25 0
3.875 0.375 0
4 0.375 0
3.75 0.375 0
3.875 0.375 0
3.75 0.5 0
3.875 0.5 0
3.875 0.375 0
4 0.375 0
3.875 0.5 0
4 0.5 0
3 0.5 0
3.125 0.5 0
3 0.625 0
3.125 0.625 0
3.125 0.5 0
3.25 0.5 0
3.125 0.625 0
3.25 0.625 0
3 0.625 0
3.125 0.625 0
3 0.75 0
3.125 0.75 0
3.125 0.625 0
3.25 0.625 0
3.125 0.75 0
3.25 0.75 0
3.25 0.5 0
3.375 0.5 0
3.25 0.625 0
3.375 0.625 0
3.375 0.5 0
3.5 0.5 0
3.375 0.625 0
3.5 0.625 0
3.25 0.625 0
3.375 0.625 0
3.25 0.75 0
3.375 0.75 0
3.375 0.625 0
3.5 0.625 0
3.375 0.75 0
3.5 0.75 0
3 0.75 0
3.125 0.75 0
3 0.875 0
3.125 0.875 0
3.125 0.75 0
3.25 0.75 0
3.125 0.875 0
3.25 0.875 0
3 0.875 0
3.125 0.875 0
3 1 0
3.125 1 0
3.125 0.875 0
3.25 0.875 0
3.125 1 0
3.25 1 0
3.25 0.75 0
3.375 0.75 0
3.25 0.875 0
3.375 0.875 0
3.375 0.75 0
3.5 0.75 0
3.375 0.875 0
3.5 0.875 0
3.25 0.875 0
3.375 0.875 0
3.25 1 0
3.375 1 0
3.375 0.875 0
3.5 0.875 0
3.375 1 0
3.5 1 0
3.5 0.5 0
3.625 0.5 0
3.5 0.625 0
3.625 0.625 0
3.625 0.5 0
3.75 0.5 0
3.625 0.625 0
3.75 0.625 0
3.5 0.625 0
3.625 0.625 0
3.5 0.75 0
3.625 0.75 0
3.625 0.625 0
3.75 0.625 0
3.625 0.75 0
3.75 0.75 0
3.75 0.5 0
3.875 0.5 0
3.75 0.625 0
3.875 0.625 0
3.875 0.5 0
4 0.5 0
3.875 0.625 0
4 0.625 0
3.75 0.625 0
3.875 0.625 0
3.75 0.75 0
3.875 0.75 0
3.875 0.625 0
4 0.625 0
3.875 0.75 0
4 0.75 0
3.5 0.75 0
3.625 0.75 0
3.5 0.875 0
3.625 0.875 0
3.625 0.75 0
3.75 0.75 0
3.625 0.875 0
3.75 0.875 0
3.5 0.875 0
3.625 0.875 0
3.5 1 0
3.625 1 0
3.625 0.875 0
3.75 0.875 0
3.625 1 0
3.75 1 0
3.75 0.75 0
3.875 0.75 0
3.75 0.875 0
3.875 0.875 0
3.875 0.75 0
4 0.75 0
3.875 0.875 0
4 0.875 0
3.75 0.875 0
3.875 0.875 0
3.75 1 0
3.875 1 0
3.875 0.875 0
4 0.875 0
3.875 1 0
4 1 0
2 0 0
2.125 0 0
2 0.125 0
2.125 0.125 0
2.125 0 0
2.25 0 0
2.125 0.125 0
2.25 0.125 0
2 0.125 0
2.125 0.125 0
2 0.25 0
2.125 0.25 0
2.125 0.125 0
2.25 0.125 0
2.125 0.25 0
2.25 0.25 0
2.25 0 0
2.375 0 0
2.25 0.125 0
2.375 0.125 0
2.375 0 0
2.5 0 0
2.375 0.125 0
2.5 0.125 0
2.25 0.125 0
2.375 0.125 0
2.25 0.25 0
2.375 0.25 0
2.375 0.125 0
2.5 0.125 0
2.375 0.25 0
2.5 0.25 0
2 0.25 0
2.125 0.25 0
2 0.375 0
2.125 0.375 0
2.125 0.25 0
2.25 0.25 0
2.125 0.375 0
2.25 0.375 0
2 0.375 0
2.125 0.375 0
2 0.5 0
2.125 0.5 0
2.125 0.375 0
2.25 0.375 0
2.125 0.5 0
2.25 0.5 0
2.25 0.25 0
2.375 0.25 0
2.25 0.375 0
2.375 0.375 0
2.375 0.25 0
[...]
POINT_DATA 1536
VECTORS displacements double
37.7593 -44.0453 0
38.476 -39.4188 0
33.3271 -44.2577 0
33.8624 -39.621 0
38.476 -39.4188 0
39.1628 -34.6139 0
33.8624 -39.621 0
34.3709 -34.8065 0
33.3271 -44.2577 0
33.8624 -39.621 0
29.2987 -44.4016 0
29.6555 -39.7549 0
33.8624 -39.621 0
34.3709 -34.8065 0
29.6555 -39.7549 0
29.9889 -34.928 0
39.1628 -34.6139 0
39.8235 -29.6364 0
34.3709 -34.8065 0
34.8533 -29.8188 0
39.8235 -29.6364 0
40.4697 -24.4844 0
34.8533 -29.8188 0
35.3057 -24.6614 0
34.3709 -34.8065 0
34.8533 -29.8188 0
29.9889 -34.928 0
30.2919 -29.9274 0
34.8533 -29.8188 0
35.3057 -24.6614 0
30.2919 -29.9274 0
30.5645 -24.7476 0
29.2987 -44.4016 0
29.6555 -39.7549 0
25.449 -44.4724 0
25.6232 -39.8162 0
29.6555 -39.7549 0
29.9889 -34.928 0
25.6232 -39.8162 0
25.777 -34.9767 0
25.449 -44.4724 0
25.6232 -39.8162 0
21.677 -44.4712 0
21.6692 -39.8054 0
25.6232 -39.8162 0
25.777 -34.9767 0
21.6692 -39.8054 0
21.647 -34.9559 0
29.9889 -34.928 0
30.2919 -29.9274 0
25.777 -34.9767 0
25.909 -29.9575 0
30.2919 -29.9274 0
30.5645 -24.7476 0
25.909 -29.9575 0
25.9988 -24.7657 0
25.777 -34.9767 0
25.909 -29.9575 0
21.647 -34.9559 0
21.6036 -29.9273 0
25.909 -29.9575 0
25.9988 -24.7657 0
21.6036 -29.9273 0
21.5444 -24.7206 0
40.4697 -24.4844 0
41.1136 -19.1534 0
35.3057 -24.6614 0
35.7282 -19.3123 0
41.1136 -19.1534 0
41.8137 -13.5633 0
35.7282 -19.3123 0
36.075 -13.7551 0
35.3057 -24.6614 0
35.7282 -19.3123 0
30.5645 -24.7476 0
30.776 -19.3837 0
35.7282 -19.3123 0
36.075 -13.7551 0
30.776 -19.3837 0
30.9215 -13.7536 0
41.8137 -13.5633 0
42.6188 -7.69758 0
36.075 -13.7551 0
36.2178 -7.62342 0
42.6188 -7.69758 0
43.0546 0 0
36.2178 -7.62342 0
36.3987 -1.38857 0
36.075 -13.7551 0
36.2178 -7.62342 0
30.9215 -13.7536 0
30.9142 -7.87665 0
36.2178 -7.62342 0
36.3987 -1.38857 0
30.9142 -7.87665 0
31.0606 -2.35172 0
30.5645 -24.7476 0
30.776 -19.3837 0
25.9988 -24.7657 0
26.0571 -19.3769 0
30.776 -19.3837 0
30.9215 -13.7536 0
26.0571 -19.3769 0
26.0042 -13.8267 0
25.9988 -24.7657 0
26.0571 -19.3769 0
21.5444 -24.7206 0
21.4283 -19.3906 0
26.0571 -19.3769 0
26.0042 -13.8267 0
21.4283 -19.3906 0
21.3243 -13.9927 0
30.9215 -13.7536 0
30.9142 -7.87665 0
26.0042 -13.8267 0
26.0078 -8.28838 0
30.9142 -7.87665 0
31.0606 -2.35172 0
26.0078 -8.28838 0
26.1174 -3.00718 0
26.0042 -13.8267 0
26.0078 -8.28838 0
21.3243 -13.9927 0
21.2979 -8.63666 0
26.0078 -8.28838 0
26.1174 -3.00718 0
21.2979 -8.63666 0
21.3783 -3.55016 0
21.677 -44.4712 0
21.6692 -39.8054 0
17.9033 -44.4005 0
17.7103 -39.7309 0
21.6692 -39.8054 0
21.647 -34.9559 0
17.7103 -39.7309 0
17.5152 -34.8734 0
17.9033 -44.4005 0
17.7103 -39.7309 0
14.0417 -44.2666 0
13.6674 -39.6009 0
17.7103 -39.7309 0
17.5152 -34.8734 0
13.6674 -39.6009 0
13.2995 -34.7627 0
21.647 -34.9559 0
21.6036 -29.9273 0
17.5152 -34.8734 0
17.3114 -29.8488 0
21.6036 -29.9273 0
21.5444 -24.7206 0
17.3114 -29.8488 0
17.091 -24.6894 0
17.5152 -34.8734 0
17.3114 -29.8488 0
13.2995 -34.7627 0
12.9376 -29.7675 0
17.3114 -29.8488 0
17.091 -24.6894 0
12.9376 -29.7675 0
12.6129 -24.6512 0
14.0417 -44.2666 0
13.6674 -39.6009 0
9.98439 -44.0928 0
9.43428 -39.4395 0
13.6674 -39.6009 0
13.2995 -34.7627 0
9.43428 -39.4395 0
8.91493 -34.626 0
9.98439 -44.0928 0
9.43428 -39.4395 0
5.58881 -43.8805 0
4.92427 -39.2426 0
9.43428 -39.4395 0
8.91493 -34.626 0
4.92427 -39.2426 0
4.33517 -34.464 0
13.2995 -34.7627 0
12.9376 -29.7675 0
8.91493 -34.626 0
8.4623 -29.6636 0
12.9376 -29.7675 0
12.6129 -24.6512 0
8.4623 -29.6636 0
8.10062 -24.6075 0
8.91493 -34.626 0
8.4623 -29.6636 0
4.33517 -34.464 0
3.80586 -29.5487 0
8.4623 -29.6636 0
8.10062 -24.6075 0
3.80586 -29.5487 0
3.31954 -24.5029 0
21.5444 -24.7206 0
21.4283 -19.3906 0
17.091 -24.6894 0
16.8845 -19.4312 0
21.4283 -19.3906 0
21.3243 -13.9927 0
16.8845 -19.4312 0
16.7507 -14.1456 0
17.091 -24.6894 0
16.8845 -19.4312 0
12.6129 -24.6512 0
12.3741 -19.4659 0
16.8845 -19.4312 0
16.7507 -14.1456 0
12.3741 -19.4659 0
12.2089 -14.2547 0
21.3243 -13.9927 0
21.2979 -8.63666 0
16.7507 -14.1456 0
16.7035 -8.91626 0
21.2979 -8.63666 0
21.3783 -3.55016 0
16.7035 -8.91626 0
16.7672 -3.98137 0
16.7507 -14.1456 0
16.7035 -8.91626 0
12.2089 -14.2547 0
12.1426 -9.11594 0
16.7035 -8.91626 0
16.7672 -3.98137 0
12.1426 -9.11594 0
12.167 -4.24341 0
12.6129 -24.6512 0
12.3741 -19.4659 0
8.10062 -24.6075 0
7.79761 -19.4589 0
12.3741 -19.4659 0
12.2089 -14.2547 0
7.79761 -19.4589 0
7.58235 -14.2873 0
8.10062 -24.6075 0
7.79761 -19.4589 0
3.31954 -24.5029 0
2.93426 -19.3814 0
7.79761 -19.4589 0
7.58235 -14.2873 0
2.93426 -19.3814 0
2.69822 -14.2557 0
12.2089 -14.2547 0
12.1426 -9.11594 0
7.58235 -14.2873 0
7.47831 -9.21182 0
12.1426 -9.11594 0
12.167 -4.24341 0
7.47831 -9.21182 0
7.46063 -4.32839 0
7.58235 -14.2873 0
7.47831 -9.21182 0
2.69822 -14.2557 0
2.61972 -9.22749 0
7.47831 -9.21182 0
7.46063 -4.32839 0
2.61972 -9.22749 0
2.61466 -4.33385 0
30.8028 -73.663 0
31.7993 -70.7747 0
28.1403 -73.9556 0
28.8716 -71.0569 0
31.7993 -70.7747 0
32.7571 -67.6286 0
28.8716 -71.0569 0
29.5803 -67.9006 0
28.1403 -73.9556 0
28.8716 -71.0569 0
25.8447 -74.154 0
26.3137 -71.2486 0
28.8716 -71.0569 0
29.5803 -67.9006 0
26.3137 -71.2486 0
26.7763 -68.0858 0
32.7571 -67.6286 0
33.6777 -64.2397 0
29.5803 -67.9006 0
30.2659 -64.5017 0
33.6777 -64.2397 0
34.5624 -60.6209 0
30.2659 -64.5017 0
30.9276 -60.8731 0
29.5803 -67.9006 0
30.2659 -64.5017 0
26.7763 -68.0858 0
27.231 -64.6804 0
30.2659 -64.5017 0
30.9276 -60.8731 0
27.231 -64.6804 0
27.6753 -61.0451 0
25.8447 -74.154 0
26.3137 -71.2486 0
23.7736 -74.2568 0
23.9765 -71.3474 0
26.3137 -71.2486 0
26.7763 -68.0858 0
23.9765 -71.3474 0
24.1868 -68.1824 0
23.7736 -74.2568 0
23.9765 -71.3474 0
21.7776 -74.2663 0
21.7224 -71.3553 0
23.9765 -71.3474 0
24.1868 -68.1824 0
21.7224 -71.3553 0
21.685 -68.1916 0
26.7763 -68.0858 0
27.231 -64.6804 0
24.1868 -68.1824 0
24.4033 -64.7745 0
27.231 -64.6804 0
27.6753 -61.0451 0
24.4033 -64.7745 0
24.6231 -61.1361 0
24.1868 -68.1824 0
24.4033 -64.7745 0
21.685 -68.1916 0
21.6647 -64.7857 0
24.4033 -64.7745 0
24.6231 -61.1361 0
21.6647 -64.7857 0
21.6585 -61.1483 0
34.5624 -60.6209 0
35.4124 -56.783 0
30.9276 -60.8731 0
31.5651 -57.0254 0
35.4124 -56.783 0
36.2283 -52.7354 0
31.5651 -57.0254 0
32.1779 -52.9679 0
30.9276 -60.8731 0
31.5651 -57.0254 0
27.6753 -61.0451 0
28.1064 -57.191 0
31.5651 -57.0254 0
32.1779 -52.9679 0
28.1064 -57.191 0
28.5221 -53.1273 0
36.2283 -52.7354 0
37.0104 -48.4868 0
32.1779 -52.9679 0
32.7654 -48.7093 0
37.0104 -48.4868 0
37.7593 -44.0453 0
32.7654 -48.7093 0
33.3271 -44.2577 0
32.1779 -52.9679 0
32.7654 -48.7093 0
28.5221 -53.1273 0
28.9203 -48.8615 0
32.7654 -48.7093 0
33.3271 -44.2577 0
28.9203 -48.8615 0
29.2987 -44.4016 0
27.6753 -61.0451 0
28.1064 -57.191 0
24.6231 -61.1361 0
24.8418 -57.2783 0
28.1064 -57.191 0
28.5221 -53.1273 0
24.8418 -57.2783 0
25.0547 -53.2105 0
24.6231 -61.1361 0
24.8418 -57.2783 0
21.6585 -61.1483 0
21.6621 -57.2894 0
24.8418 -57.2783 0
25.0547 -53.2105 0
21.6621 -57.2894 0
21.6701 -53.2185 0
28.5221 -53.1273 0
28.9203 -48.8615 0
25.0547 -53.2105 0
25.2581 -48.9398 0
28.9203 -48.8615 0
29.2987 -44.4016 0
25.2581 -48.9398 0
25.449 -44.4724 0
25.0547 -53.2105 0
25.2581 -48.9398 0
21.6701 -53.2185 0
21.6766 -48.9439 0
25.2581 -48.9398 0
25.449 -44.4724 0
21.6766 -48.9439 0
21.677 -44.4712 0
21.7776 -74.2663 0
21.7224 -71.3553 0
19.7514 -74.1885 0
19.4517 -71.2777 0
21.7224 -71.3553 0
21.685 -68.1916 0
19.4517 -71.2777 0
19.1768 -68.1188 0
19.7514 -74.1885 0
19.4517 -71.2777 0
17.6022 -74.0308 0
17.0741 -71.1234 0
19.4517 -71.2777 0
19.1768 -68.1188 0
17.0741 -71.1234 0
16.5735 -67.9725 0
21.685 -68.1916 0
21.6647 -64.7857 0
19.1768 -68.1188 0
18.9258 -64.719 0
21.6647 -64.7857 0
21.6585 -61.1483 0
18.9258 -64.719 0
18.6961 -61.0865 0
19.1768 -68.1188 0
18.9258 -64.719 0
16.5735 -67.9725 0
16.0993 -64.5819 0
18.9258 -64.719 0
18.6961 -61.0865 0
16.0993 -64.5819 0
15.6494 -60.957 0
17.6022 -74.0308 0
17.0741 -71.1234 0
15.2132 -73.8054 0
14.4725 -70.905 0
17.0741 -71.1234 0
16.5735 -67.9725 0
14.4725 -70.905 0
13.7566 -67.7634 0
15.2132 -73.8054 0
14.4725 -70.905 0
12.5056 -73.5147 0
11.5304 -70.6224 0
14.4725 -70.905 0
13.7566 -67.7634 0
11.5304 -70.6224 0
10.5809 -67.4896 0
16.5735 -67.9725 0
16.0993 -64.5819 0
13.7566 -67.7634 0
13.0661 -64.3824 0
16.0993 -64.5819 0
15.6494 -60.957 0
13.0661 -64.3824 0
12.401 -60.7659 0
13.7566 -67.7634 0
13.0661 -64.3824 0
10.5809 -67.4896 0
9.65971 -64.1179 0
13.0661 -64.3824 0
12.401 -60.7659 0
9.65971 -64.1179 0
8.76944 -60.5109 0
21.6585 -61.1483 0
21.6621 -57.2894 0
18.6961 -61.0865 0
18.4838 -57.2294 0
21.6621 -57.2894 0
21.6701 -53.2185 0
18.4838 -57.2294 0
18.2845 -53.1566 0
18.6961 -61.0865 0
18.4838 -57.2294 0
15.6494 -60.957 0
15.2217 -57.1041 0
18.4838 -57.2294 0
18.2845 -53.1566 0
15.2217 -57.1041 0
14.8136 -53.0313 0
21.6701 -53.2185 0
21.6766 -48.9439 0
18.2845 -53.1566 0
18.0932 -48.8773 0
21.6766 -48.9439 0
21.677 -44.4712 0
18.0932 -48.8773 0
17.9033 -44.4005 0
18.2845 -53.1566 0
18.0932 -48.8773 0
14.8136 -53.0313 0
14.4219 -48.7481 0
18.0932 -48.8773 0
17.9033 -44.4005 0
14.4219 -48.7481 0
14.0417 -44.2666 0
15.6494 -60.957 0
15.2217 -57.1041 0
12.401 -60.7659 0
11.7614 -56.9194 0
15.2217 -57.1041 0
14.8136 -53.0313 0
11.7614 -56.9194 0
11.1466 -52.8505 0
12.401 -60.7659 0
11.7614 -56.9194 0
8.76944 -60.5109 0
7.91278 -56.6743 0
11.7614 -56.9194 0
11.1466 -52.8505 0
7.91278 -56.6743 0
7.09318 -52.6156 0
14.8136 -53.0313 0
14.4219 -48.7481 0
11.1466 -52.8505 0
10.555 -48.57 0
14.4219 -48.7481 0
14.0417 -44.2666 0
10.555 -48.57 0
9.98439 -44.0928 0
11.1466 -52.8505 0
10.555 -48.57 0
7.09318 -52.6156 0
6.31581 -48.3457 0
10.555 -48.57 0
9.98439 -44.0928 0
6.31581 -48.3457 0
5.58881 -43.8805 0
21.5273 -85.4083 0
22.781 -85.2067 0
21.5273 -85.7685 0
22.4038 -85.565 0
22.781 -85.2067 0
24.0215 -84.6082 0
22.4038 -85.565 0
23.276 -84.9613 0
21.5273 -85.7685 0
22.4038 -85.565 0
21.5273 -86.1076 0
22.1569 -85.8925 0
22.4038 -85.565 0
23.276 -84.9613 0
22.1569 -85.8925 0
22.7612 -85.2609 0
24.0215 -84.6082 0
25.2379 -83.6292 0
23.276 -84.9613 0
24.1385 -83.9742 0
25.2379 -83.6292 0
26.4239 -82.2892 0
24.1385 -83.9742 0
24.9844 -82.6245 0
23.276 -84.9613 0
24.1385 -83.9742 0
22.7612 -85.2609 0
23.3309 -84.245 0
24.1385 -83.9742 0
24.9844 -82.6245 0
23.3309 -84.245 0
23.8704 -82.8732 0
21.5273 -86.1076 0
22.1569 -85.8925 0
21.5273 -86.5386 0
21.9706 -86.3009 0
22.1569 -85.8925 0
22.7612 -85.2609 0
21.9706 -86.3009 0
22.3669 -85.6113 0
21.5273 -86.5386 0
21.9706 -86.3009 0
21.5273 -86.9838 0
21.7743 -86.7182 0
21.9706 -86.3009 0
22.3669 -85.6113 0
21.7743 -86.7182 0
21.9575 -85.9553 0
22.7612 -85.2609 0
23.3309 -84.245 0
22.3669 -85.6113 0
22.6952 -84.5232 0
23.3309 -84.245 0
23.8704 -82.8732 0
22.6952 -84.5232 0
22.963 -83.0845 0
22.3669 -85.6113 0
22.6952 -84.5232 0
21.9575 -85.9553 0
22.0501 -84.7737 0
22.6952 -84.5232 0
22.963 -83.0845 0
22.0501 -84.7737 0
22.06 -83.2473 0
26.4239 -82.2892 0
27.5757 -80.6062 0
24.9844 -82.6245 0
25.8087 -80.9312 0
27.5757 -80.6062 0
28.6905 -78.5965 0
25.8087 -80.9312 0
26.6095 -78.9107 0
24.9844 -82.6245 0
25.8087 -80.9312 0
23.8704 -82.8732 0
24.3874 -81.163 0
25.8087 -80.9312 0
26.6095 -78.9107 0
24.3874 -81.163 0
24.8855 -79.1294 0
28.6905 -78.5965 0
29.7665 -76.2763 0
26.6095 -78.9107 0
27.3864 -76.5796 0
29.7665 -76.2763 0
30.8028 -73.663 0
27.3864 -76.5796 0
28.1403 -73.9556 0
26.6095 -78.9107 0
27.3864 -76.5796 0
24.8855 -79.1294 0
25.3693 -76.7866 0
27.3864 -76.5796 0
28.1403 -73.9556 0
25.3693 -76.7866 0
25.8447 -74.154 0
23.8704 -82.8732 0
24.3874 -81.163 0
22.963 -83.0845 0
23.1868 -81.3255 0
24.3874 -81.163 0
24.8855 -79.1294 0
23.1868 -81.3255 0
23.3847 -79.258 0
22.963 -83.0845 0
23.1868 -81.3255 0
22.06 -83.2473 0
22.0087 -81.4124 0
23.1868 -81.3255 0
23.3847 -79.258 0
22.0087 -81.4124 0
21.9302 -79.2994 0
24.8855 -79.1294 0
25.3693 -76.7866 0
23.3847 -79.258 0
23.5774 -76.8977 0
25.3693 -76.7866 0
25.8447 -74.154 0
23.5774 -76.8977 0
23.7736 -74.2568 0
23.3847 -79.258 0
23.5774 -76.8977 0
21.9302 -79.2994 0
21.8488 -76.9162 0
23.5774 -76.8977 0
23.7736 -74.2568 0
21.8488 -76.9162 0
21.7776 -74.2663 0
21.5273 -86.9838 0
21.7743 -86.7182 0
21.5273 -87.4272 0
21.5557 -87.1162 0
21.7743 -86.7182 0
21.9575 -85.9553 0
21.5557 -87.1162 0
21.4975 -86.2447 0
21.5273 -87.4272 0
21.5557 -87.1162 0
21.5273 -87.8538 0
21.2732 -87.4632 0
21.5557 -87.1162 0
21.4975 -86.2447 0
21.2732 -87.4632 0
20.9312 -86.4243 0
21.9575 -85.9553 0
22.0501 -84.7737 0
21.4975 -86.2447 0
21.3285 -84.9463 0
22.0501 -84.7737 0
22.06 -83.2473 0
21.3285 -84.9463 0
21.0647 -83.3124 0
21.4975 -86.2447 0
21.3285 -84.9463 0
20.9312 -86.4243 0
20.4528 -84.9704 0
21.3285 -84.9463 0
21.0647 -83.3124 0
20.4528 -84.9704 0
19.8948 -83.2517 0
21.5273 -87.8538 0
21.2732 -87.4632 0
21.5273 -88.2318 0
20.9087 -87.6449 0
21.2732 -87.4632 0
20.9312 -86.4243 0
20.9087 -87.6449 0
20.1245 -86.3533 0
21.5273 -88.2318 0
20.9087 -87.6449 0
21.5273 -88.2376 0
20.0901 -87.4958 0
20.9087 -87.6449 0
20.1245 -86.3533 0
20.0901 -87.4958 0
18.8344 -86.0261 0
20.9312 -86.4243 0
20.4528 -84.9704 0
20.1245 -86.3533 0
19.2604 -84.8002 0
20.4528 -84.9704 0
19.8948 -83.2517 0
19.2604 -84.8002 0
18.4093 -83.0482 0
20.1245 -86.3533 0
19.2604 -84.8002 0
18.8344 -86.0261 0
17.7051 -84.4823 0
19.2604 -84.8002 0
18.4093 -83.0482 0
17.7051 -84.4823 0
16.6206 -82.7318 0
22.06 -83.2473 0
22.0087 -81.4124 0
21.0647 -83.3124 0
20.7467 -81.4082 0
22.0087 -81.4124 0
21.9302 -79.2994 0
20.7467 -81.4082 0
20.409 -79.2524 0
21.0647 -83.3124 0
20.7467 -81.4082 0
19.8948 -83.2517 0
19.3131 -81.2987 0
20.7467 -81.4082 0
20.409 -79.2524 0
19.3131 -81.2987 0
18.7292 -79.1142 0
21.9302 -79.2994 0
21.8488 -76.9162 0
20.409 -79.2524 0
20.0729 -76.8467 0
21.8488 -76.9162 0
21.7776 -74.2663 0
20.0729 -76.8467 0
19.7514 -74.1885 0
20.409 -79.2524 0
20.0729 -76.8467 0
18.7292 -79.1142 0
18.1559 -76.6935 0
20.0729 -76.8467 0
19.7514 -74.1885 0
18.1559 -76.6935 0
17.6022 -74.0308 0
19.8948 -83.2517 0
19.3131 -81.2987 0
18.4093 -83.0482 0
17.5774 -81.08 0
19.3131 -81.2987 0
18.7292 -79.1142 0
17.5774 -81.08 0
16.7667 -78.8883 0
18.4093 -83.0482 0
17.5774 -81.08 0
16.6206 -82.7318 0
15.5615 -80.7692 0
17.5774 -81.08 0
16.7667 -78.8883 0
15.5615 -80.7692 0
14.5229 -78.5834 0
18.7292 -79.1142 0
18.1559 -76.6935 0
16.7667 -78.8883 0
15.9782 -76.4654 0
18.1559 -76.6935 0
17.6022 -74.0308 0
15.9782 -76.4654 0
15.2132 -73.8054 0
16.7667 -78.8883 0
15.9782 -76.4654 0
14.5229 -78.5834 0
13.5038 -76.1672 0
15.9782 -76.4654 0
15.2132 -73.8054 0
13.5038 -76.1672 0
12.5056 -73.5147 0
12.2518 -73.663 0
13.2881 -76.2763 0
14.9143 -73.9556 0
15.6682 -76.5796 0
13.2881 -76.2763 0
14.3641 -78.5965 0
15.6682 -76.5796 0
16.4451 -78.9107 0
14.9143 -73.9556 0
15.6682 -76.5796 0
17.2099 -74.154 0
17.6853 -76.7866 0
15.6682 -76.5796 0
16.4451 -78.9107 0
17.6853 -76.7866 0
18.1691 -79.1294 0
14.3641 -78.5965 0
15.4789 -80.6062 0
16.4451 -78.9107 0
17.2459 -80.9312 0
15.4789 -80.6062 0
16.6307 -82.2892 0
17.2459 -80.9312 0
18.0702 -82.6245 0
16.4451 -78.9107 0
17.2459 -80.9312 0
18.1691 -79.1294 0
18.6672 -81.163 0
17.2459 -80.9312 0
18.0702 -82.6245 0
18.6672 -81.163 0
19.1842 -82.8732 0
17.2099 -74.154 0
17.6853 -76.7866 0
19.281 -74.2568 0
19.4772 -76.8977 0
17.6853 -76.7866 0
18.1691 -79.1294 0
19.4772 -76.8977 0
19.6699 -79.258 0
19.281 -74.2568 0
19.4772 -76.8977 0
21.277 -74.2663 0
21.2058 -76.9162 0
19.4772 -76.8977 0
19.6699 -79.258 0
21.2058 -76.9162 0
21.1244 -79.2994 0
18.1691 -79.1294 0
18.6672 -81.163 0
19.6699 -79.258 0
19.8678 -81.3255 0
18.6672 -81.163 0
19.1842 -82.8732 0
19.8678 -81.3255 0
20.0916 -83.0845 0
19.6699 -79.258 0
19.8678 -81.3255 0
21.1244 -79.2994 0
21.0459 -81.4124 0
19.8678 -81.3255 0
20.0916 -83.0845 0
21.0459 -81.4124 0
20.9946 -83.2473 0
16.6307 -82.2892 0
17.8167 -83.6292 0
18.0702 -82.6245 0
18.9161 -83.9742 0
17.8167 -83.6292 0
19.0332 -84.6082 0
18.9161 -83.9742 0
19.7786 -84.9613 0
18.0702 -82.6245 0
18.9161 -83.9742 0
19.1842 -82.8732 0
19.7237 -84.245 0
18.9161 -83.9742 0
19.7786 -84.9613 0
19.7237 -84.245 0
20.2934 -85.2609 0
19.0332 -84.6082 0
20.2736 -85.2067 0
19.7786 -84.9613 0
20.6508 -85.565 0
20.2736 -85.2067 0
21.5273 -85.4083 0
20.6508 -85.565 0
21.5273 -85.7685 0
19.7786 -84.9613 0
20.6508 -85.565 0
20.2934 -85.2609 0
20.8977 -85.8925 0
20.6508 -85.565 0
21.5273 -85.7685 0
20.8977 -85.8925 0
21.5273 -86.1076 0
19.1842 -82.8732 0
19.7237 -84.245 0
20.0916 -83.0845 0
20.3594 -84.5232 0
19.7237 -84.245 0
20.2934 -85.2609 0
20.3594 -84.5232 0
20.6877 -85.6113 0
20.0916 -83.0845 0
20.3594 -84.5232 0
20.9946 -83.2473 0
21.0045 -84.7737 0
20.3594 -84.5232 0
20.6877 -85.6113 0
21.0045 -84.7737 0
21.0971 -85.9553 0
20.2934 -85.2609 0
20.8977 -85.8925 0
20.6877 -85.6113 0
21.084 -86.3009 0
20.8977 -85.8925 0
21.5273 -86.1076 0
21.084 -86.3009 0
21.5273 -86.5386 0
20.6877 -85.6113 0
21.084 -86.3009 0
21.0971 -85.9553 0
21.2803 -86.7182 0
21.084 -86.3009 0
21.5273 -86.5386 0
21.2803 -86.7182 0
21.5273 -86.9838 0
21.277 -74.2663 0
21.2058 -76.9162 0
23.3032 -74.1885 0
22.9818 -76.8467 0
21.2058 -76.9162 0
21.1244 -79.2994 0
22.9818 -76.8467 0
22.6456 -79.2524 0
23.3032 -74.1885 0
22.9818 -76.8467 0
25.4524 -74.0308 0
24.8987 -76.6935 0
22.9818 -76.8467 0
22.6456 -79.2524 0
24.8987 -76.6935 0
24.3254 -79.1142 0
21.1244 -79.2994 0
21.0459 -81.4124 0
22.6456 -79.2524 0
22.3079 -81.4082 0
21.0459 -81.4124 0
20.9946 -83.2473 0
22.3079 -81.4082 0
21.9899 -83.3124 0
22.6456 -79.2524 0
22.3079 -81.4082 0
24.3254 -79.1142 0
23.7415 -81.2987 0
22.3079 -81.4082 0
21.9899 -83.3124 0
23.7415 -81.2987 0
23.1598 -83.2517 0
25.4524 -74.0308 0
24.8987 -76.6935 0
27.8414 -73.8054 0
27.0764 -76.4654 0
24.8987 -76.6935 0
24.3254 -79.1142 0
27.0764 -76.4654 0
26.2879 -78.8883 0
27.8414 -73.8054 0
27.0764 -76.4654 0
30.549 -73.5147 0
29.5508 -76.1672 0
27.0764 -76.4654 0
26.2879 -78.8883 0
29.5508 -76.1672 0
28.5317 -78.5834 0
24.3254 -79.1142 0
23.7415 -81.2987 0
26.2879 -78.8883 0
25.4772 -81.08 0
23.7415 -81.2987 0
23.1598 -83.2517 0
25.4772 -81.08 0
24.6453 -83.0482 0
26.2879 -78.8883 0
25.4772 -81.08 0
28.5317 -78.5834 0
27.4931 -80.7692 0
25.4772 -81.08 0
24.6453 -83.0482 0
27.4931 -80.7692 0
26.434 -82.7318 0
20.9946 -83.2473 0
21.0045 -84.7737 0
21.9899 -83.3124 0
21.7261 -84.9463 0
21.0045 -84.7737 0
21.0971 -85.9553 0
21.7261 -84.9463 0
21.5571 -86.2447 0
21.9899 -83.3124 0
21.7261 -84.9463 0
23.1598 -83.2517 0
22.6018 -84.9704 0
21.7261 -84.9463 0
21.5571 -86.2447 0
22.6018 -84.9704 0
22.1234 -86.4243 0
21.0971 -85.9553 0
21.2803 -86.7182 0
21.5571 -86.2447 0
21.4989 -87.1162 0
21.2803 -86.7182 0
21.5273 -86.9838 0
21.4989 -87.1162 0
21.5273 -87.4272 0
21.5571 -86.2447 0
21.4989 -87.1162 0
22.1234 -86.4243 0
21.7814 -87.4632 0
21.4989 -87.1162 0
21.5273 -87.4272 0
21.7814 -87.4632 0
21.5273 -87.8538 0
23.1598 -83.2517 0
22.6018 -84.9704 0
24.6453 -83.0482 0
23.7942 -84.8002 0
22.6018 -84.9704 0
22.1234 -86.4243 0
23.7942 -84.8002 0
22.9301 -86.3533 0
24.6453 -83.0482 0
23.7942 -84.8002 0
26.434 -82.7318 0
25.3495 -84.4823 0
23.7942 -84.8002 0
22.9301 -86.3533 0
25.3495 -84.4823 0
24.2202 -86.0261 0
22.1234 -86.4243 0
21.7814 -87.4632 0
22.9301 -86.3533 0
22.1459 -87.6449 0
21.7814 -87.4632 0
21.5273 -87.8538 0
22.1459 -87.6449 0
21.5273 -88.2318 0
22.9301 -86.3533 0
22.1459 -87.6449 0
24.2202 -86.0261 0
22.9645 -87.4958 0
22.1459 -87.6449 0
21.5273 -88.2318 0
22.9645 -87.4958 0
21.5273 -88.2376 0
5.29528 -44.0453 0
6.04419 -48.4868 0
9.72752 -44.2577 0
10.2892 -48.7093 0
6.04419 -48.4868 0
6.82634 -52.7354 0
10.2892 -48.7093 0
10.8767 -52.9679 0
9.72752 -44.2577 0
10.2892 -48.7093 0
13.7559 -44.4016 0
14.1343 -48.8615 0
10.2892 -48.7093 0
10.8767 -52.9679 0
14.1343 -48.8615 0
14.5325 -53.1273 0
6.82634 -52.7354 0
7.6422 -56.783 0
10.8767 -52.9679 0
11.4895 -57.0254 0
7.6422 -56.783 0
8.49219 -60.6209 0
11.4895 -57.0254 0
12.127 -60.8731 0
10.8767 -52.9679 0
11.4895 -57.0254 0
14.5325 -53.1273 0
14.9482 -57.191 0
11.4895 -57.0254 0
12.127 -60.8731 0
14.9482 -57.191 0
15.3793 -61.0451 0
13.7559 -44.4016 0
14.1343 -48.8615 0
17.6056 -44.4724 0
17.7965 -48.9398 0