# vtk DataFile Version 3.0
#This file was generated by the deal.II library on 2020/9/2 at 8:38:03
ASCII
DATASET UNSTRUCTURED_GRID

POINTS 1536 double
5 0 0
5.125 0 0
5 0.125 0
5.125 0.125 0
5.125 0 0
5.25 0 0
5.125 0.125 0
5.25 0.125 0
5 0.125 0
5.125 0.125 0
5 0.25 0
5.125 0.25 0
5.125 0.125 0
5.25 0.125 0
5.125 0.25 0
5.25 0.25 0
5.25 0 0
5.375 0 0
5.25 0.125 0
5.375 0.125 0
5.375 0 0
5.5 0 0
5.375 0.125 0
5.5 0.125 0
5.25 0.125 0
5.375 0.125 0
5.25 0.25 0
5.375 0.25 0
5.375 0.125 0
5.5 0.125 0
5.375 0.25 0
5.5 0.25 0
5 0.25 0
5.125 0.25 0
5 0.375 0
5.125 0.375 0
5.125 0.25 0
5.25 0.25 0
5.125 0.375 0
5.25 0.375 0
5 0.375 0
5.125 0.375 0
5 0.5 0
5.125 0.5 0
5.125 0.375 0
5.25 0.375 0
5.125 0.5 0
5.25 0.5 0
5.25 0.25 0
5.375 0.25 0
5.25 0.375 0
5.375 0.375 0
5.375 0.25 0
5.5 0.25 0
5.375 0.375 0
5.5 0.375 0
5.25 0.375 0
5.375 0.375 0
5.25 0.5 0
5.375 0.5 0
5.375 0.375 0
5.5 0.375 0
5.375 0.5 0
5.5 0.5 0
5.5 0 0
5.625 0 0
5.5 0.125 0
5.625 0.125 0
5.625 0 0
5.75 0 0
5.625 0.125 0
5.75 0.125 0
5.5 0.125 0
5.625 0.125 0
5.5 0.25 0
5.625 0.25 0
5.625 0.125 0
5.75 0.125 0
5.625 0.25 0
5.75 0.25 0
5.75 0 0
5.875 0 0
5.75 0.125 0
5.875 0.125 0
5.875 0 0
6 0 0
5.875 0.125 0
6 0.125 0
5.75 0.125 0
5.875 0.125 0
5.75 0.25 0
5.875 0.25 0
5.875 0.125 0
6 0.125 0
5.875 0.25 0
6 0.25 0
5.5 0.25 0
5.625 0.25 0
5.5 0.375 0
5.625 0.375 0
5.625 0.25 0
5.75 0.25 0
5.625 0.375 0
5.75 0.375 0
5.5 0.375 0
5.625 0.375 0
5.5 0.5 0
5.625 0.5 0
5.625 0.375 0
5.75 0.375 0
5.625 0.5 0
5.75 0.5 0
5.75 0.25 0
5.875 0.25 0
5.75 0.375 0
5.875 0.375 0
5.875 0.25 0
6 0.25 0
5.875 0.375 0
6 0.375 0
5.75 0.375 0
5.875 0.375 0
5.75 0.5 0
5.875 0.5 0
5.875 0.375 0
6 0.375 0
5.875 0.5 0
6 0.5 0
5 0.5 0
5.125 0.5 0
5 0.625 0
5.125 0.625 0
5.125 0.5 0
5.25 0.5 0
5.125 0.625 0
5.25 0.625 0
5 0.625 0
5.125 0.625 0
5 0.75 0
5.125 0.75 0
5.125 0.625 0
5.25 0.625 0
5.125 0.75 0
5.25 0.75 0
5.25 0.5 0
5.375 0.5 0
5.25 0.625 0
5.375 0.625 0
5.375 0.5 0
5.5 0.5 0
5.375 0.625 0
5.5 0.625 0
5.25 0.625 0
5.375 0.625 0
5.25 0.75 0
5.375 0.75 0
5.375 0.625 0
5.5 0.625 0
5.375 0.75 0
5.5 0.75 0
5 0.75 0
5.125 0.75 0
5 0.875 0
5.125 0.875 0
5.125 0.75 0
5.25 0.75 0
5.125 0.875 0
5.25 0.875 0
5 0.875 0
5.125 0.875 0
5 1 0
5.125 1 0
5.125 0.875 0
5.25 0.875 0
5.125 1 0
5.25 1 0
5.25 0.75 0
5.375 0.75 0
5.25 0.875 0
5.375 0.875 0
5.375 0.75 0
5.5 0.75 0
5.375 0.875 0
5.5 0.875 0
5.25 0.875 0
5.375 0.875 0
5.25 1 0
5.375 1 0
5.375 0.875 0
5.5 0.875 0
5.375 1 0
5.5 1 0
5.5 0.5 0
5.625 0.5 0
5.5 0.625 0
5.625 0.625 0
5.625 0.5 0
5.75 0.5 0
5.625 0.625 0
5.75 0.625 0
5.5 0.625 0
5.625 0.625 0
5.5 0.75 0
5.625 0.75 0
5.625 0.625 0
5.75 0.625 0
5.625 0.75 0
5.75 0.75 0
5.75 0.5 0
5.875 0.5 0
5.75 0.625 0
5.875 0.625 0
5.875 0.5 0
6 0.5 0
5.875 0.625 0
6 0.625 0
5.75 0.625 0
5.875 0.625 0
5.75 0.75 0
5.875 0.75 0
5.875 0.625 0
6 0.625 0
5.875 0.75 0
6 0.75 0
5.5 0.75 0
5.625 0.75 0
5.5 0.875 0
5.625 0.875 0
5.625 0.75 0
5.75 0.75 0
5.625 0.875 0
5.75 0.875 0
5.5 0.875 0
5.625 0.875 0
5.5 1 0
5.625 1 0
5.625 0.875 0
5.75 0.875 0
5.625 1 0
5.75 1 0
5.75 0.75 0
5.875 0.75 0
5.75 0.875 0
5.875 0.875 0
5.875 0.75 0
6 0.75 0
5.875 0.875 0
6 0.875 0
5.75 0.875 0
5.875 0.875 0
5.75 1 0
5.875 1 0
5.875 0.875 0
6 0.875 0
5.875 1 0
6 1 0
4 0 0
4.125 0 0
4 0.125 0
4.125 0.125 0
4.125 0 0
4.25 0 0
4.125 0.125 0
4.25 0.125 0
4 0.125 0
4.125 0.125 0
4 0.25 0
4.125 0.25 0
4.125 0.125 0
4.25 0.125 0
4.125 0.25 0
4.25 0.25 0
4.25 0 0
4.375 0 0
4.25 0.125 0
4.375 0.125 0
4.375 0 0
4.5 0 0
4.375 0.125 0
4.5 0.125 0
4.25 0.125 0
4.375 0.125 0
4.25 0.25 0
4.375 0.25 0
4.375 0.125 0
4.5 0.125 0
4.375 0.25 0
4.5 0.25 0
4 0.25 0
4.125 0.25 0
4 0.375 0
4.125 0.375 0
4.125 0.25 0
4.25 0.25 0
4.125 0.375 0
4.25 0.375 0
4 0.375 0
4.125 0.375 0
4 0.5 0
4.125 0.5 0
4.125 0.375 0
4.25 0.375 0
4.125 0.5 0
4.25 0.5 0
4.25 0.25 0
4.375 0.25 0
4.25 0.375 0
4.375 0.375 0
4.375 0.25 0
4.5 0.25 0
4.375 0.375 0
4.5 0.375 0
4.25 0.375 0
4.375 0.375 0
4.25 0.5 0
4.375 0.5 0
4.375 0.375 0
4.5 0.375 0
4.375 0.5 0
4.5 0.5 0
4.5 0 0
4.625 0 0
4.5 0.125 0
4.625 0.125 0
4.625 0 0
4.75 0 0
4.625 0.125 0
4.75 0.125 0
4.5 0.125 0
4.625 0.125 0
4.5 0.25 0
4.625 0.25 0
4.625 0.125 0
4.75 0.125 0
4.625 0.25 0
4.75 0.25 0
4.75 0 0
4.875 0 0
4.75 0.125 0
4.875 0.125 0
4.875 0 0
5 0 0
4.875 0.125 0
5 0.125 0
4.75 0.125 0
4.875 0.125 0
4.75 0.25 0
4.875 0.25 0
4.875 0.125 0
5 0.125 0
4.875 0.25 0
5 0.25 0
4.5 0.25 0
4.625 0.25 0
4.5 0.375 0
4.625 0.375 0
4.625 0.25 0
4.75 0.25 0
4.625 0.375 0
4.75 0.375 0
4.5 0.375 0
4.625 0.375 0
4.5 0.5 0
4.625 0.5 0
4.625 0.375 0
4.75 0.375 0
4.625 0.5 0
4.75 0.5 0
4.75 0.25 0
4.875 0.25 0
4.75 0.375 0
4.875 0.375 0
4.875 0.25 0
5 0.25 0
4.875 0.375 0
5 0.375 0
4.75 0.375 0
4.875 0.375 0
4.75 0.5 0
4.875 0.5 0
4.875 0.375 0
5 0.375 0
4.875 0.5 0
5 0.5 0
4 0.5 0
4.125 0.5 0
4 0.625 0
4.125 0.625 0
4.125 0.5 0
4.25 0.5 0
4.125 0.625 0
4.25 0.625 0
4 0.625 0
4.125 0.625 0
4 0.75 0
4.125 0.75 0
4.125 0.625 0
4.25 0.625 0
4.125 0.75 0
4.25 0.75 0
4.25 0.5 0
4.375 0.5 0
4.25 0.625 0
4.375 0.625 0
4.375 0.5 0
4.5 0.5 0
4.375 0.625 0
4.5 0.625 0
4.25 0.625 0
4.375 0.625 0
4.25 0.75 0
4.375 0.75 0
4.375 0.625 0
4.5 0.625 0
4.375 0.75 0
4.5 0.75 0
4 0.75 0
4.125 0.75 0
4 0.875 0
4.125 0.875 0
4.125 0.75 0
4.25 0.75 0
4.125 0.875 0
4.25 0.875 0
4 0.875 0
4.125 0.875 0
4 1 0
4.125 1 0
4.125 0.875 0
4.25 0.875 0
4.125 1 0
4.25 1 0
4.25 0.75 0
4.375 0.75 0
4.25 0.875 0
4.375 0.875 0
4.375 0.75 0
4.5 0.75 0
4.375 0.875 0
4.5 0.875 0
4.25 0.875 0
4.375 0.875 0
4.25 1 0
4.375 1 0
4.375 0.875 0
4.5 0.875 0
4.375 1 0
4.5 1 0
4.5 0.5 0
4.625 0.5 0
4.5 0.625 0
4.625 0.625 0
4.625 0.5 0
4.75 0.5 0
4.625 0.625 0
4.75 0.625 0
4.5 0.625 0
4.625 0.625 0
4.5 0.75 0
4.625 0.75 0
4.625 0.625 0
4.75 0.625 0
4.625 0.75 0
4.75 0.75 0
4.75 0.5 0
4.875 0.5 0
4.75 0.625 0
4.875 0.625 0
4.875 0.5 0
5 0.5 0
4.875 0.625 0
5 0.625 0
4.75 0.625 0
4.875 0.625 0
4.75 0.75 0
4.875 0.75 0
4.875 0.625 0
5 0.625 0
4.875 0.75 0
5 0.75 0
4.5 0.75 0
4.625 0.75 0
4.5 0.875 0
4.625 0.875 0
4.625 0.75 0
4.75 0.75 0
4.625 0.875 0
4.75 0.875 0
4.5 0.875 0
4.625 0.875 0
4.5 1 0
4.625 1 0
4.625 0.875 0
4.75 0.875 0
4.625 1 0
4.75 1 0
4.75 0.75 0
4.875 0.75 0
4.75 0.875 0
4.875 0.875 0
4.875 0.75 0
5 0.75 0
4.875 0.875 0
5 0.875 0
4.75 0.875 0
4.875 0.875 0
4.75 1 0
4.875 1 0
4.875 0.875 0
5 0.875 0
4.875 1 0
5 1 0
3 0 0
3.125 0 0
3 0.125 0
3.125 0.125 0
3.125 0 0
3.25 0 0
3.125 0.125 0
3.25 0.125 0
3 0.125 0
3.125 0.125 0
3 0.25 0
3.125 0.25 0
3.125 0.125 0
3.25 0.125 0
3.125 0.25 0
3.25 0.25 0
3.25 0 0
3.375 0 0
3.25 0.125 0
3.375 0.125 0
3.375 0 0
3.5 0 0
3.375 0.125 0
3.5 0.125 0
3.25 0.125 0
3.375 0.125 0
3.25 0.25 0
3.375 0.25 0
3.375 0.125 0
3.5 0.125 0
3.375 0.25 0
3.5 0.25 0
3 0.25 0
3.125 0.25 0
3 0.375 0
3.125 0.375 0
3.125 0.25 0
3.25 0.25 0
3.125 0.375 0
3.25 0.375 0
3 0.375 0
3.125 0.375 0
3 0.5 0
3.125 0.5 0
3.125 0.375 0
3.25 0.375 0
3.125 0.5 0
3.25 0.5 0
3.25 0.25 0
3.375 0.25 0
3.25 0.375 0
3.375 0.375 0
3.375 0.25 0
3.5 0.25 0
3.375 0.375 0
3.5 0.375 0
3.25 0.375 0
3.375 0.375 0
3.25 0.5 0
3.375 0.5 0
3.375 0.375 0
3.5 0.375 0
3.375 0.5 0
3.5 0.5 0
3.5 0 0
3.625 0 0
3.5 0.125 0
3.625 0.125 0
3.625 0 0
3.75 0 0
3.625 0.125 0
3.75 0.125 0
3.5 0.125 0
3.625 0.125 0
3.5 0.25 0
3.625 0.25 0
3.625 0.125 0
3.75 0.125 0
3.625 0.25 0
3.75 0.25 0
3.75 0 0
3.875 0 0
3.75 0.125 0
3.875 0.125 0
3.875 0 0
4 0 0
3.875 0.125 0
4 0.125 0
3.75 0.125 0
3.875 0.125 0
3.75 0.25 0
3.875 0.25 0
3.875 0.125 0
4 0.125 0
3.875 0.25 0
4 0.25 0
3.5 0.25 0
3.625 0.25 0
3.5 0.375 0
3.625 0.375 0
3.625 0.25 0
3.75 0.25 0
3.625 0.375 0
3.75 0.375 0
3.5 0.375 0
3.625 0.375 0
3.5 0.5 0
3.625 0.5 0
3.625 0.375 0
3.75 0.375 0
3.625 0.5 0
3.75 0.5 0
3.75 0.25 0
3.875 0.25 0
3.75 0.375 0
3.875 0.375 0
3.875 0.25 0
4 0.25 0
3.875 0.375 0
4 0.375 0
3.75 0.375 0
3.875 0.375 0
3.75 0.5 0
3.875 0.5 0
3.875 0.375 0
4 0.375 0
3.875 0.5 0
4 0.5 0
3 0.5 0
3.125 0.5 0
3 0.625 0
3.125 0.625 0
3.125 0.5 0
3.25 0.5 0
3.125 0.625 0
3.25 0.625 0
3 0.625 0
3.125 0.625 0
3 0.75 0
3.125 0.75 0
3.125 0.625 0
3.25 0.625 0
3.125 0.75 0
3.25 0.75 0
3.25 0.5 0
3.375 0.5 0
3.25 0.625 0
3.375 0.625 0
3.375 0.5 0
3.5 0.5 0
3.375 0.625 0
3.5 0.625 0
3.25 0.625 0
3.375 0.625 0
3.25 0.75 0
3.375 0.75 0
3.375 0.625 0
3.5 0.625 0
3.375 0.75 0
3.5 0.75 0
3 0.75 0
3.125 0.75 0
3 0.875 0
3.125 0.875 0
3.125 0.75 0
3.25 0.75 0
3.125 0.875 0
3.25 0.875 0
3 0.875 0
3.125 0.875 0
3 1 0
3.125 1 0
3.125 0.875 0
3.25 0.875 0
3.125 1 0
3.25 1 0
3.25 0.75 0
3.375 0.75 0
3.25 0.875 0
3.375 0.875 0
3.375 0.75 0
3.5 0.75 0
3.375 0.875 0
3.5 0.875 0
3.25 0.875 0
3.375 0.875 0
3.25 1 0
3.375 1 0
3.375 0.875 0
3.5 0.875 0
3.375 1 0
3.5 1 0
3.5 0.5 0
3.625 0.5 0
3.5 0.625 0
3.625 0.625 0
3.625 0.5 0
3.75 0.5 0
3.625 0.625 0
3.75 0.625 0
3.5 0.625 0
3.625 0.625 0
3.5 0.75 0
3.625 0.75 0
3.625 0.625 0
3.75 0.625 0
3.625 0.75 0
3.75 0.75 0
3.75 0.5 0
3.875 0.5 0
3.75 0.625 0
3.875 0.625 0
3.875 0.5 0
4 0.5 0
3.875 0.625 0
4 0.625 0
3.75 0.625 0
3.875 0.625 0
3.75 0.75 0
3.875 0.75 0
3.875 0.625 0
4 0.625 0
3.875 0.75 0
4 0.75 0
3.5 0.75 0
3.625 0.75 0
3.5 0.875 0
3.625 0.875 0
3.625 0.75 0
3.75 0.75 0
3.625 0.875 0
3.75 0.875 0
3.5 0.875 0
3.625 0.875 0
3.5 1 0
3.625 1 0
3.625 0.875 0
3.75 0.875 0
3.625 1 0
3.75 1 0
3.75 0.75 0
3.875 0.75 0
3.75 0.875 0
3.875 0.875 0
3.875 0.75 0
4 0.75 0
3.875 0.875 0
4 0.875 0
3.75 0.875 0
3.875 0.875 0
3.75 1 0
3.875 1 0
3.875 0.875 0
4 0.875 0
3.875 1 0
4 1 0
2 0 0
2.125 0 0
2 0.125 0
2.125 0.125 0
2.125 0 0
2.25 0 0
2.125 0.125 0
2.25 0.125 0
2 0.125 0
2.125 0.125 0
2 0.25 0
2.125 0.25 0
2.125 0.125 0
2.25 0.125 0
2.125 0.25 0
2.25 0.25 0
2.25 0 0
2.375 0 0
2.25 0.125 0
2.375 0.125 0
2.375 0 0
2.5 0 0
2.375 0.125 0
2.5 0.125 0
2.25 0.125 0
2.375 0.125 0
2.25 0.25 0
2.375 0.25 0
2.375 0.125 0
2.5 0.125 0
2.375 0.25 0
2.5 0.25 0
2 0.25 0
2.125 0.25 0
2 0.375 0
2.125 0.375 0
2.125 0.25 0
2.25 0.25 0
2.125 0.375 0
2.25 0.375 0
2 0.375 0
2.125 0.375 0
2 0.5 0
2.125 0.5 0
2.125 0.375 0
2.25 0.375 0
2.125 0.5 0
2.25 0.5 0
2.25 0.25 0
2.375 0.25 0
2.25 0.375 0
2.375 0.375 0
2.375 0.25 0
[...]
POINT_DATA 1536
VECTORS displacements double
1.90083 -2.09106 0
1.92622 -1.86491 0
1.68115 -2.09887 0
1.70016 -1.87182 0
1.92622 -1.86491 0
1.94881 -1.63301 0
1.70016 -1.87182 0
1.71693 -1.63908 0
1.68115 -2.09887 0
1.70016 -1.87182 0
1.4669 -2.1043 0
1.47927 -1.87648 0
1.70016 -1.87182 0
1.71693 -1.63908 0
1.47927 -1.87648 0
1.48983 -1.64292 0
1.94881 -1.63301 0
1.96905 -1.39599 0
1.71693 -1.63908 0
1.73156 -1.4013 0
1.96905 -1.39599 0
1.98774 -1.15407 0
1.73156 -1.4013 0
1.74416 -1.1588 0
1.71693 -1.63908 0
1.73156 -1.4013 0
1.48983 -1.64292 0
1.49842 -1.40425 0
1.73156 -1.4013 0
1.74416 -1.1588 0
1.49842 -1.40425 0
1.5047 -1.16071 0
1.4669 -2.1043 0
1.47927 -1.87648 0
1.25645 -2.10728 0
1.26222 -1.87881 0
1.47927 -1.87648 0
1.48983 -1.64292 0
1.26222 -1.87881 0
1.26676 -1.64451 0
1.25645 -2.10728 0
1.26222 -1.87881 0
1.04812 -2.1079 0
1.04752 -1.87899 0
1.26222 -1.87881 0
1.26676 -1.64451 0
1.04752 -1.87899 0
1.0465 -1.64418 0
1.48983 -1.64292 0
1.49842 -1.40425 0
1.26676 -1.64451 0
1.26985 -1.40499 0
1.49842 -1.40425 0
1.5047 -1.16071 0
1.26985 -1.40499 0
1.27122 -1.16064 0
1.26676 -1.64451 0
1.26985 -1.40499 0
1.0465 -1.64418 0
1.04492 -1.40418 0
1.26985 -1.40499 0
1.27122 -1.16064 0
1.04492 -1.40418 0
1.04275 -1.15967 0
1.98774 -1.15407 0
2.00626 -0.906822 0
1.74416 -1.1588 0
1.75452 -0.910911 0
2.00626 -0.906822 0
2.0275 -0.650424 0
1.75452 -0.910911 0
1.76152 -0.655357 0
1.74416 -1.1588 0
1.75452 -0.910911 0
1.5047 -1.16071 0
1.50805 -0.911807 0
1.75452 -0.910911 0
1.76152 -0.655357 0
1.50805 -0.911807 0
1.50762 -0.654945 0
2.0275 -0.650424 0
2.05488 -0.379112 0
1.76152 -0.655357 0
1.7603 -0.378206 0
2.05488 -0.379112 0
2.08532 0 0
1.7603 -0.378206 0
1.76767 -0.0827889 0
1.76152 -0.655357 0
1.7603 -0.378206 0
1.50762 -0.654945 0
1.50735 -0.38926 0
1.7603 -0.378206 0
1.76767 -0.0827889 0
1.50735 -0.38926 0
1.51423 -0.130053 0
1.5047 -1.16071 0
1.50805 -0.911807 0
1.27122 -1.16064 0
1.27078 -0.911383 0
1.50805 -0.911807 0
1.50762 -0.654945 0
1.27078 -0.911383 0
1.26963 -0.657528 0
1.27122 -1.16064 0
1.27078 -0.911383 0
1.04275 -1.15967 0
1.04039 -0.911503 0
1.27078 -0.911383 0
1.26963 -0.657528 0
1.04039 -0.911503 0
1.03892 -0.66149 0
1.50762 -0.654945 0
1.50735 -0.38926 0
1.26963 -0.657528 0
1.27056 -0.402893 0
1.50735 -0.38926 0
1.51423 -0.130053 0
1.27056 -0.402893 0
1.27563 -0.158053 0
1.26963 -0.657528 0
1.27056 -0.402893 0
1.03892 -0.66149 0
1.03971 -0.413723 0
1.27056 -0.402893 0
1.27563 -0.158053 0
1.03971 -0.413723 0
1.04299 -0.175075 0
1.04812 -2.1079 0
1.04752 -1.87899 0
0.840062 -2.10632 0
0.833378 -1.87728 0
1.04752 -1.87899 0
1.0465 -1.64418 0
0.833378 -1.87728 0
0.827243 -1.64231 0
0.840062 -2.10632 0
0.833378 -1.87728 0
0.630234 -2.10266 0
0.61765 -1.87387 0
0.833378 -1.87728 0
0.827243 -1.64231 0
0.61765 -1.87387 0
0.606682 -1.63918 0
1.0465 -1.64418 0
1.04492 -1.40418 0
0.827243 -1.64231 0
0.821619 -1.40231 0
1.04492 -1.40418 0
1.04275 -1.15967 0
0.821619 -1.40231 0
0.816628 -1.15831 0
0.827243 -1.64231 0
0.821619 -1.40231 0
0.606682 -1.63918 0
0.597365 -1.39961 0
0.821619 -1.40231 0
0.816628 -1.15831 0
0.597365 -1.39961 0
0.589818 -1.15646 0
0.630234 -2.10266 0
0.61765 -1.87387 0
0.416448 -2.097 0
0.397983 -1.86887 0
0.61765 -1.87387 0
0.606682 -1.63918 0
0.397983 -1.86887 0
0.382242 -1.63487 0
0.416448 -2.097 0
0.397983 -1.86887 0
0.19647 -2.08927 0
0.171909 -1.86218 0
0.397983 -1.86887 0
0.382242 -1.63487 0
0.171909 -1.86218 0
0.151155 -1.6293 0
0.606682 -1.63918 0
0.597365 -1.39961 0
0.382242 -1.63487 0
0.369338 -1.39611 0
0.597365 -1.39961 0
0.589818 -1.15646 0
0.369338 -1.39611 0
0.359376 -1.15398 0
0.382242 -1.63487 0
0.369338 -1.39611 0
0.151155 -1.6293 0
0.134484 -1.39173 0
0.369338 -1.39611 0
0.359376 -1.15398 0
0.134484 -1.39173 0
0.122168 -1.1509 0
1.04275 -1.15967 0
1.04039 -0.911503 0
0.816628 -1.15831 0
0.81268 -0.91175 0
1.04039 -0.911503 0
1.03892 -0.66149 0
0.81268 -0.91175 0
0.810456 -0.664865 0
0.816628 -1.15831 0
0.81268 -0.91175 0
0.589818 -1.15646 0
0.584269 -0.911452 0
0.81268 -0.91175 0
0.810456 -0.664865 0
0.584269 -0.911452 0
0.580987 -0.666827 0
1.03892 -0.66149 0
1.03971 -0.413723 0
0.810456 -0.664865 0
0.810454 -0.421015 0
1.03971 -0.413723 0
1.04299 -0.175075 0
0.810454 -0.421015 0
0.812137 -0.184616 0
0.810456 -0.664865 0
0.810454 -0.421015 0
0.580987 -0.666827 0
0.579995 -0.425139 0
0.810454 -0.421015 0
0.812137 -0.184616 0
0.579995 -0.425139 0
0.580428 -0.188841 0
0.589818 -1.15646 0
0.584269 -0.911452 0
0.359376 -1.15398 0
0.352392 -0.910306 0
0.584269 -0.911452 0
0.580987 -0.666827 0
0.352392 -0.910306 0
0.348244 -0.667241 0
0.359376 -1.15398 0
0.352392 -0.910306 0
0.122168 -1.1509 0
0.114299 -0.908558 0
0.352392 -0.910306 0
0.348244 -0.667241 0
0.114299 -0.908558 0
0.110492 -0.666723 0
0.580987 -0.666827 0
0.579995 -0.425139 0
0.348244 -0.667241 0
0.346498 -0.426823 0
0.579995 -0.425139 0
0.580428 -0.188841 0
0.346498 -0.426823 0
0.346194 -0.189834 0
0.348244 -0.667241 0
0.346498 -0.426823 0
0.110492 -0.666723 0
0.109553 -0.427115 0
0.346498 -0.426823 0
0.346194 -0.189834 0
0.109553 -0.427115 0
0.109569 -0.18982 0
1.58079 -3.59402 0
1.63261 -3.44387 0
1.44097 -3.60962 0
1.47979 -3.45846 0
1.63261 -3.44387 0
1.68097 -3.28123 0
1.47979 -3.45846 0
1.51606 -3.29483 0
1.44097 -3.60962 0
1.47979 -3.45846 0
1.30718 -3.62067 0
1.33294 -3.46883 0
1.47979 -3.45846 0
1.51606 -3.29483 0
1.33294 -3.46883 0
1.35707 -3.30452 0
1.68097 -3.28123 0
1.72594 -3.10697 0
1.51606 -3.29483 0
1.5498 -3.11959 0
1.72594 -3.10697 0
1.76754 -2.92194 0
1.5498 -3.11959 0
1.58103 -2.93359 0
1.51606 -3.29483 0
1.5498 -3.11959 0
1.35707 -3.30452 0
1.37954 -3.12859 0
1.5498 -3.11959 0
1.58103 -2.93359 0
1.37954 -3.12859 0
1.40035 -2.94189 0
1.30718 -3.62067 0
1.33294 -3.46883 0
1.17726 -3.62717 0
1.18999 -3.47496 0
1.33294 -3.46883 0
1.35707 -3.30452 0
1.18999 -3.47496 0
1.20197 -3.31027 0
1.17726 -3.62717 0
1.18999 -3.47496 0
1.04912 -3.62915 0
1.04889 -3.47687 0
1.18999 -3.47496 0
1.20197 -3.31027 0
1.04889 -3.47687 0
1.04877 -3.31211 0
1.35707 -3.30452 0
1.37954 -3.12859 0
1.20197 -3.31027 0
1.21316 -3.13396 0
1.37954 -3.12859 0
1.40035 -2.94189 0
1.21316 -3.13396 0
1.22355 -2.94685 0
1.20197 -3.31027 0
1.21316 -3.13396 0
1.04877 -3.31211 0
1.0487 -3.13569 0
1.21316 -3.13396 0
1.22355 -2.94685 0
1.0487 -3.13569 0
1.04867 -2.94845 0
1.76754 -2.92194 0
1.8058 -2.72698 0
1.58103 -2.93359 0
1.60975 -2.73765 0
1.8058 -2.72698 0
1.84073 -2.52294 0
1.60975 -2.73765 0
1.636 -2.53265 0
1.58103 -2.93359 0
1.60975 -2.73765 0
1.40035 -2.94189 0
1.4195 -2.74526 0
1.60975 -2.73765 0
1.636 -2.53265 0
1.4195 -2.74526 0
1.43699 -2.53955 0
1.84073 -2.52294 0
1.87239 -2.31068 0
1.636 -2.53265 0
1.65978 -2.31943 0
1.87239 -2.31068 0
1.90083 -2.09106 0
1.65978 -2.31943 0
1.68115 -2.09887 0
1.636 -2.53265 0
1.65978 -2.31943 0
1.43699 -2.53955 0
1.45279 -2.32561 0
1.65978 -2.31943 0
1.68115 -2.09887 0
1.45279 -2.32561 0
1.4669 -2.1043 0
1.40035 -2.94189 0
1.4195 -2.74526 0
1.22355 -2.94685 0
1.23311 -2.74978 0
1.4195 -2.74526 0
1.43699 -2.53955 0
1.23311 -2.74978 0
1.24181 -2.5436 0
1.22355 -2.94685 0
1.23311 -2.74978 0
1.04867 -2.94845 0
1.04865 -2.75123 0
1.23311 -2.74978 0
1.24181 -2.5436 0
1.04865 -2.75123 0
1.04858 -2.54484 0
1.43699 -2.53955 0
1.45279 -2.32561 0
1.24181 -2.5436 0
1.24961 -2.32916 0
1.45279 -2.32561 0
1.4669 -2.1043 0
1.24961 -2.32916 0
1.25645 -2.10728 0
1.24181 -2.5436 0
1.24961 -2.32916 0
1.04858 -2.54484 0
1.04843 -2.33012 0
1.24961 -2.32916 0
1.25645 -2.10728 0
1.04843 -2.33012 0
1.04812 -2.1079 0
1.04912 -3.62915 0
1.04889 -3.47687 0
0.920746 -3.62668 0
0.90766 -3.47462 0
1.04889 -3.47687 0
1.04877 -3.31211 0
0.90766 -3.47462 0
0.89549 -3.31006 0
0.920746 -3.62668 0
0.90766 -3.47462 0
0.790244 -3.61983 0
0.764387 -3.46825 0
0.90766 -3.47462 0
0.89549 -3.31006 0
0.764387 -3.46825 0
0.740222 -3.30415 0
1.04877 -3.31211 0
1.0487 -3.13569 0
0.89549 -3.31006 0
0.884205 -3.13382 0
1.0487 -3.13569 0
1.04867 -2.94845 0
0.884205 -3.13382 0
0.873777 -2.94673 0
0.89549 -3.31006 0
0.884205 -3.13382 0
0.740222 -3.30415 0
0.717735 -3.12836 0
0.884205 -3.13382 0
0.873777 -2.94673 0
0.717735 -3.12836 0
0.696919 -2.94169 0
0.790244 -3.61983 0
0.764387 -3.46825 0
0.655835 -3.60867 0
0.617238 -3.4578 0
0.764387 -3.46825 0
0.740222 -3.30415 0
0.617238 -3.4578 0
0.58108 -3.29441 0
0.655835 -3.60867 0
0.617238 -3.4578 0
0.515823 -3.59318 0
0.464409 -3.44325 0
0.617238 -3.4578 0
0.58108 -3.29441 0
0.464409 -3.44325 0
0.4162 -3.28082 0
0.740222 -3.30415 0
0.717735 -3.12836 0
0.58108 -3.29441 0
0.547384 -3.11932 0
0.717735 -3.12836 0
0.696919 -2.94169 0
0.547384 -3.11932 0
0.516167 -2.93335 0
0.58108 -3.29441 0
0.547384 -3.11932 0
0.4162 -3.28082 0
0.37125 -3.10669 0
0.547384 -3.11932 0
0.516167 -2.93335 0
0.37125 -3.10669 0
0.329593 -2.92168 0
1.04867 -2.94845 0
1.04865 -2.75123 0
0.873777 -2.94673 0
0.864184 -2.74962 0
1.04865 -2.75123 0
1.04858 -2.54484 0
0.864184 -2.74962 0
0.855397 -2.5433 0
0.873777 -2.94673 0
0.864184 -2.74962 0
0.696919 -2.94169 0
0.67777 -2.74498 0
0.864184 -2.74962 0
0.855397 -2.5433 0
0.67777 -2.74498 0
0.660279 -2.53903 0
1.04858 -2.54484 0
1.04843 -2.33012 0
0.855397 -2.5433 0
0.847375 -2.32859 0
1.04843 -2.33012 0
1.04812 -2.1079 0
0.847375 -2.32859 0
0.840062 -2.10632 0
0.855397 -2.5433 0
0.847375 -2.32859 0
0.660279 -2.53903 0
0.644439 -2.32465 0
0.847375 -2.32859 0
0.840062 -2.10632 0
0.644439 -2.32465 0
0.630234 -2.10266 0
0.696919 -2.94169 0
0.67777 -2.74498 0
0.516167 -2.93335 0
0.487443 -2.73732 0
0.67777 -2.74498 0
0.660279 -2.53903 0
0.487443 -2.73732 0
0.46123 -2.53205 0
0.516167 -2.93335 0
0.487443 -2.73732 0
0.329593 -2.92168 0
0.291251 -2.72662 0
0.487443 -2.73732 0
0.46123 -2.53205 0
0.291251 -2.72662 0
0.256248 -2.52232 0
0.660279 -2.53903 0
0.644439 -2.32465 0
0.46123 -2.53205 0
0.437552 -2.31834 0
0.644439 -2.32465 0
0.630234 -2.10266 0
0.437552 -2.31834 0
0.416448 -2.097 0
0.46123 -2.53205 0
0.437552 -2.31834 0
0.256248 -2.52232 0
0.224629 -2.3096 0
0.437552 -2.31834 0
0.416448 -2.097 0
0.224629 -2.3096 0
0.19647 -2.08927 0
1.04266 -4.21935 0
1.11933 -4.20844 0
1.04266 -4.24184 0
1.09893 -4.23071 0
1.11933 -4.20844 0
1.19471 -4.17602 0
1.09893 -4.23071 0
1.15433 -4.19772 0
1.04266 -4.24184 0
1.09893 -4.23071 0
1.04266 -4.25882 0
1.08051 -4.24745 0
1.09893 -4.23071 0
1.15433 -4.19772 0
1.08051 -4.24745 0
1.11761 -4.21378 0
1.19471 -4.17602 0
1.26771 -4.123 0
1.15433 -4.19772 0
1.20811 -4.14383 0
1.26771 -4.123 0
1.33758 -4.05061 0
1.20811 -4.14383 0
1.25975 -4.07043 0
1.15433 -4.19772 0
1.20811 -4.14383 0
1.11761 -4.21378 0
1.15339 -4.15899 0
1.20811 -4.14383 0
1.25975 -4.07043 0
1.15339 -4.15899 0
1.18754 -4.08463 0
1.04266 -4.25882 0
1.08051 -4.24745 0
1.04266 -4.27158 0
1.0633 -4.25979 0
1.08051 -4.24745 0
1.11761 -4.21378 0
1.0633 -4.25979 0
1.0831 -4.22506 0
1.04266 -4.27158 0
1.0633 -4.25979 0
1.04266 -4.2811 0
1.04677 -4.26856 0
1.0633 -4.25979 0
1.0831 -4.22506 0
1.04677 -4.26856 0
1.04969 -4.23201 0
1.11761 -4.21378 0
1.15339 -4.15899 0
1.0831 -4.22506 0
1.10157 -4.16898 0
1.15339 -4.15899 0
1.18754 -4.08463 0
1.10157 -4.16898 0
1.11867 -4.09347 0
1.0831 -4.22506 0
1.10157 -4.16898 0
1.04969 -4.23201 0
1.05101 -4.17396 0
1.10157 -4.16898 0
1.11867 -4.09347 0
1.05101 -4.17396 0
1.05111 -4.09697 0
1.33758 -4.05061 0
1.4039 -3.96024 0
1.25975 -4.07043 0
1.30895 -3.97898 0
1.4039 -3.96024 0
1.46653 -3.85323 0
1.30895 -3.97898 0
1.35556 -3.8709 0
1.25975 -4.07043 0
1.30895 -3.97898 0
1.18754 -4.08463 0
1.21998 -3.99229 0
1.30895 -3.97898 0
1.35556 -3.8709 0
1.21998 -3.99229 0
1.2507 -3.8834 0
1.46653 -3.85323 0
1.52546 -3.7308 0
1.35556 -3.8709 0
1.39957 -3.74742 0
1.52546 -3.7308 0
1.58079 -3.59402 0
1.39957 -3.74742 0
1.44097 -3.60962 0
1.35556 -3.8709 0
1.39957 -3.74742 0
1.2507 -3.8834 0
1.27976 -3.75918 0
1.39957 -3.74742 0
1.44097 -3.60962 0
1.27976 -3.75918 0
1.30718 -3.62067 0
1.18754 -4.08463 0
1.21998 -3.99229 0
1.11867 -4.09347 0
1.13459 -4.00026 0
1.21998 -3.99229 0
1.2507 -3.8834 0
1.13459 -4.00026 0
1.14959 -3.89075 0
1.11867 -4.09347 0
1.13459 -4.00026 0
1.05111 -4.09697 0
1.05061 -4.00291 0
1.13459 -4.00026 0
1.14959 -3.89075 0
1.05061 -4.00291 0
1.04999 -3.89299 0
1.2507 -3.8834 0
1.27976 -3.75918 0
1.14959 -3.89075 0
1.16379 -3.76607 0
1.27976 -3.75918 0
1.30718 -3.62067 0
1.16379 -3.76607 0
1.17726 -3.62717 0
1.14959 -3.89075 0
1.16379 -3.76607 0
1.04999 -3.89299 0
1.04948 -3.76813 0
1.16379 -3.76607 0
1.17726 -3.62717 0
1.04948 -3.76813 0
1.04912 -3.62915 0
1.04266 -4.2811 0
1.04677 -4.26856 0
1.04266 -4.28834 0
1.03045 -4.27434 0
1.04677 -4.26856 0
1.04969 -4.23201 0
1.03045 -4.27434 0
1.01627 -4.23457 0
1.04266 -4.28834 0
1.03045 -4.27434 0
1.04266 -4.29461 0
1.01369 -4.27754 0
1.03045 -4.27434 0
1.01627 -4.23457 0
1.01369 -4.27754 0
0.981209 -4.23185 0
1.04969 -4.23201 0
1.05101 -4.17396 0
1.01627 -4.23457 0
0.999978 -4.17356 0
1.05101 -4.17396 0
1.05111 -4.09697 0
0.999978 -4.17356 0
0.982769 -4.09487 0
1.01627 -4.23457 0
0.999978 -4.17356 0
0.981209 -4.23185 0
0.94605 -4.16686 0
0.999978 -4.17356 0
0.982769 -4.09487 0
0.94605 -4.16686 0
0.911251 -4.08684 0
1.04266 -4.29461 0
1.01369 -4.27754 0
1.04266 -4.30238 0
0.994774 -4.2777 0
1.01369 -4.27754 0
0.981209 -4.23185 0
0.994774 -4.2777 0
0.940273 -4.22117 0
1.04266 -4.30238 0
0.994774 -4.2777 0
1.04266 -4.31176 0
0.958091 -4.27115 0
0.994774 -4.2777 0
0.940273 -4.22117 0
0.958091 -4.27115 0
0.883504 -4.20009 0
0.981209 -4.23185 0
0.94605 -4.16686 0
0.940273 -4.22117 0
0.885384 -4.15291 0
0.94605 -4.16686 0
0.911251 -4.08684 0
0.885384 -4.15291 0
0.834283 -4.07305 0
0.940273 -4.22117 0
0.885384 -4.15291 0
0.883504 -4.20009 0
0.815968 -4.13336 0
0.885384 -4.15291 0
0.834283 -4.07305 0
0.815968 -4.13336 0
0.750962 -4.05408 0
1.05111 -4.09697 0
1.05061 -4.00291 0
0.982769 -4.09487 0
0.965862 -4.00017 0
1.05061 -4.00291 0
1.04999 -3.89299 0
0.965862 -4.00017 0
0.949826 -3.89017 0
0.982769 -4.09487 0
0.965862 -4.00017 0
0.911251 -4.08684 0
0.878255 -3.99207 0
0.965862 -4.00017 0
0.949826 -3.89017 0
0.878255 -3.99207 0
0.84713 -3.88239 0
1.04999 -3.89299 0
1.04948 -3.76813 0
0.949826 -3.89017 0
0.934789 -3.76544 0
1.04948 -3.76813 0
1.04912 -3.62915 0
0.934789 -3.76544 0
0.920746 -3.62668 0
0.949826 -3.89017 0
0.934789 -3.76544 0
0.84713 -3.88239 0
0.817813 -3.75811 0
0.934789 -3.76544 0
0.920746 -3.62668 0
0.817813 -3.75811 0
0.790244 -3.61983 0
0.911251 -4.08684 0
0.878255 -3.99207 0
0.834283 -4.07305 0
0.786018 -3.97881 0
0.878255 -3.99207 0
0.84713 -3.88239 0
0.786018 -3.97881 0
0.740238 -3.86981 0
0.834283 -4.07305 0
0.786018 -3.97881 0
0.750962 -4.05408 0
0.688153 -3.96068 0
0.786018 -3.97881 0
0.740238 -3.86981 0
0.688153 -3.96068 0
0.627863 -3.85251 0
0.84713 -3.88239 0
0.817813 -3.75811 0
0.740238 -3.86981 0
0.696844 -3.74624 0
0.817813 -3.75811 0
0.790244 -3.61983 0
0.696844 -3.74624 0
0.655835 -3.60867 0
0.740238 -3.86981 0
0.696844 -3.74624 0
0.627863 -3.85251 0
0.570353 -3.72984 0
0.696844 -3.74624 0
0.655835 -3.60867 0
0.570353 -3.72984 0
0.515823 -3.59318 0
0.504524 -3.59402 0
0.559854 -3.7308 0
0.644351 -3.60962 0
0.68575 -3.74742 0
0.559854 -3.7308 0
0.618792 -3.85323 0
0.68575 -3.74742 0
0.729753 -3.8709 0
0.644351 -3.60962 0
0.68575 -3.74742 0
0.778143 -3.62067 0
0.805554 -3.75918 0
0.68575 -3.74742 0
0.729753 -3.8709 0
0.805554 -3.75918 0
0.834614 -3.8834 0
0.618792 -3.85323 0
0.681415 -3.96024 0
0.729753 -3.8709 0
0.776371 -3.97898 0
0.681415 -3.96024 0
0.747736 -4.05061 0
0.776371 -3.97898 0
0.825567 -4.07043 0
0.729753 -3.8709 0
0.776371 -3.97898 0
0.834614 -3.8834 0
0.865343 -3.99229 0
0.776371 -3.97898 0
0.825567 -4.07043 0
0.865343 -3.99229 0
0.897777 -4.08463 0
0.778143 -3.62067 0
0.805554 -3.75918 0
0.908059 -3.62717 0
0.921529 -3.76607 0
0.805554 -3.75918 0
0.834614 -3.8834 0
0.921529 -3.76607 0
0.935733 -3.89075 0
0.908059 -3.62717 0
0.921529 -3.76607 0
1.0362 -3.62915 0
1.03584 -3.76813 0
0.921529 -3.76607 0
0.935733 -3.89075 0
1.03584 -3.76813 0
1.03532 -3.89299 0
0.834614 -3.8834 0
0.865343 -3.99229 0
0.935733 -3.89075 0
0.950725 -4.00026 0
0.865343 -3.99229 0
0.897777 -4.08463 0
0.950725 -4.00026 0
0.966651 -4.09347 0
0.935733 -3.89075 0
0.950725 -4.00026 0
1.03532 -3.89299 0
1.03471 -4.00291 0
0.950725 -4.00026 0
0.966651 -4.09347 0
1.03471 -4.00291 0
1.03421 -4.09697 0
0.747736 -4.05061 0
0.817605 -4.123 0
0.825567 -4.07043 0
0.877207 -4.14383 0
0.817605 -4.123 0
0.890608 -4.17602 0
0.877207 -4.14383 0
0.930986 -4.19772 0
0.825567 -4.07043 0
0.877207 -4.14383 0
0.897777 -4.08463 0
0.931929 -4.15899 0
0.877207 -4.14383 0
0.930986 -4.19772 0
0.931929 -4.15899 0
0.967706 -4.21378 0
0.890608 -4.17602 0
0.965988 -4.20844 0
0.930986 -4.19772 0
0.986383 -4.23071 0
0.965988 -4.20844 0
1.04266 -4.21935 0
0.986383 -4.23071 0
1.04266 -4.24184 0
0.930986 -4.19772 0
0.986383 -4.23071 0
0.967706 -4.21378 0
1.0048 -4.24745 0
0.986383 -4.23071 0
1.04266 -4.24184 0
1.0048 -4.24745 0
1.04266 -4.25882 0
0.897777 -4.08463 0
0.931929 -4.15899 0
0.966651 -4.09347 0
0.983745 -4.16898 0
0.931929 -4.15899 0
0.967706 -4.21378 0
0.983745 -4.16898 0
1.00222 -4.22506 0
0.966651 -4.09347 0
0.983745 -4.16898 0
1.03421 -4.09697 0
1.0343 -4.17396 0
0.983745 -4.16898 0
1.00222 -4.22506 0
1.0343 -4.17396 0
1.03563 -4.23201 0
0.967706 -4.21378 0
1.0048 -4.24745 0
1.00222 -4.22506 0
1.02201 -4.25979 0
1.0048 -4.24745 0
1.04266 -4.25882 0
1.02201 -4.25979 0
1.04266 -4.27158 0
1.00222 -4.22506 0
1.02201 -4.25979 0
1.03563 -4.23201 0
1.03855 -4.26856 0
1.02201 -4.25979 0
1.04266 -4.27158 0
1.03855 -4.26856 0
1.04266 -4.2811 0
1.0362 -3.62915 0
1.03584 -3.76813 0
1.16457 -3.62668 0
1.15053 -3.76544 0
1.03584 -3.76813 0
1.03532 -3.89299 0
1.15053 -3.76544 0
1.13549 -3.89017 0
1.16457 -3.62668 0
1.15053 -3.76544 0
1.29507 -3.61983 0
1.26751 -3.75811 0
1.15053 -3.76544 0
1.13549 -3.89017 0
1.26751 -3.75811 0
1.23819 -3.88239 0
1.03532 -3.89299 0
1.03471 -4.00291 0
1.13549 -3.89017 0
1.11946 -4.00017 0
1.03471 -4.00291 0
1.03421 -4.09697 0
1.11946 -4.00017 0
1.10255 -4.09487 0
1.13549 -3.89017 0
1.11946 -4.00017 0
1.23819 -3.88239 0
1.20706 -3.99207 0
1.11946 -4.00017 0
1.10255 -4.09487 0
1.20706 -3.99207 0
1.17407 -4.08684 0
1.29507 -3.61983 0
1.26751 -3.75811 0
1.42948 -3.60867 0
1.38847 -3.74624 0
1.26751 -3.75811 0
1.23819 -3.88239 0
1.38847 -3.74624 0
1.34508 -3.86981 0
1.42948 -3.60867 0
1.38847 -3.74624 0
1.5695 -3.59318 0
1.51496 -3.72984 0
1.38847 -3.74624 0
1.34508 -3.86981 0
1.51496 -3.72984 0
1.45745 -3.85251 0
1.23819 -3.88239 0
1.20706 -3.99207 0
1.34508 -3.86981 0
1.2993 -3.97881 0
1.20706 -3.99207 0
1.17407 -4.08684 0
1.2993 -3.97881 0
1.25104 -4.07305 0
1.34508 -3.86981 0
1.2993 -3.97881 0
1.45745 -3.85251 0
1.39716 -3.96068 0
1.2993 -3.97881 0
1.25104 -4.07305 0
1.39716 -3.96068 0
1.33436 -4.05408 0
1.03421 -4.09697 0
1.0343 -4.17396 0
1.10255 -4.09487 0
1.08534 -4.17356 0
1.0343 -4.17396 0
1.03563 -4.23201 0
1.08534 -4.17356 0
1.06904 -4.23457 0
1.10255 -4.09487 0
1.08534 -4.17356 0
1.17407 -4.08684 0
1.13927 -4.16686 0
1.08534 -4.17356 0
1.06904 -4.23457 0
1.13927 -4.16686 0
1.10411 -4.23185 0
1.03563 -4.23201 0
1.03855 -4.26856 0
1.06904 -4.23457 0
1.05487 -4.27434 0
1.03855 -4.26856 0
1.04266 -4.2811 0
1.05487 -4.27434 0
1.04266 -4.28834 0
1.06904 -4.23457 0
1.05487 -4.27434 0
1.10411 -4.23185 0
1.07163 -4.27754 0
1.05487 -4.27434 0
1.04266 -4.28834 0
1.07163 -4.27754 0
1.04266 -4.29461 0
1.17407 -4.08684 0
1.13927 -4.16686 0
1.25104 -4.07305 0
1.19993 -4.15291 0
1.13927 -4.16686 0
1.10411 -4.23185 0
1.19993 -4.15291 0
1.14504 -4.22117 0
1.25104 -4.07305 0
1.19993 -4.15291 0
1.33436 -4.05408 0
1.26935 -4.13336 0
1.19993 -4.15291 0
1.14504 -4.22117 0
1.26935 -4.13336 0
1.20181 -4.20009 0
1.10411 -4.23185 0
1.07163 -4.27754 0
1.14504 -4.22117 0
1.09054 -4.2777 0
1.07163 -4.27754 0
1.04266 -4.29461 0
1.09054 -4.2777 0
1.04266 -4.30238 0
1.14504 -4.22117 0
1.09054 -4.2777 0
1.20181 -4.20009 0
1.12723 -4.27115 0
1.09054 -4.2777 0
1.04266 -4.30238 0
1.12723 -4.27115 0
1.04266 -4.31176 0
0.184484 -2.09106 0
0.212933 -2.31068 0
0.404171 -2.09887 0
0.425538 -2.31943 0
0.212933 -2.31068 0
0.244586 -2.52294 0
0.425538 -2.31943 0
0.449323 -2.53265 0
0.404171 -2.09887 0