# vtk DataFile Version 3.0
#This file was generated by the deal.II library on 2020/9/2 at 8:42:33
ASCII
DATASET UNSTRUCTURED_GRID

POINTS 1536 double
5 0 0
5.125 0 0
5 0.125 0
5.125 0.125 0
5.125 0 0
5.25 0 0
5.125 0.125 0
5.25 0.125 0
5 0.125 0
5.125 0.125 0
5 0.25 0
5.125 0.25 0
5.125 0.125 0
5.25 0.125 0
5.125 0.25 0
5.25 0.25 0
5.25 0 0
5.375 0 0
5.25 0.125 0
5.375 0.125 0
5.375 0 0
5.5 0 0
5.375 0.125 0
5.5 0.125 0
5.25 0.125 0
5.375 0.125 0
5.25 0.25 0
5.375 0.25 0
5.375 0.125 0
5.5 0.125 0
5.375 0.25 0
5.5 0.25 0
5 0.25 0
5.125 0.25 0
5 0.375 0
5.125 0.375 0
5.125 0.25 0
5.25 0.25 0
5.125 0.375 0
5.25 0.375 0
5 0.375 0
5.125 0.375 0
5 0.5 0
5.125 0.5 0
5.125 0.375 0
5.25 0.375 0
5.125 0.5 0
5.25 0.5 0
5.25 0.25 0
5.375 0.25 0
5.25 0.375 0
5.375 0.375 0
5.375 0.25 0
5.5 0.25 0
5.375 0.375 0
5.5 0.375 0
5.25 0.375 0
5.375 0.375 0
5.25 0.5 0
5.375 0.5 0
5.375 0.375 0
5.5 0.375 0
5.375 0.5 0
5.5 0.5 0
5.5 0 0
5.625 0 0
5.5 0.125 0
5.625 0.125 0
5.625 0 0
5.75 0 0
5.625 0.125 0
5.75 0.125 0
5.5 0.125 0
5.625 0.125 0
5.5 0.25 0
5.625 0.25 0
5.625 0.125 0
5.75 0.125 0
5.625 0.25 0
5.75 0.25 0
5.75 0 0
5.875 0 0
5.75 0.125 0
5.875 0.125 0
5.875 0 0
6 0 0
5.875 0.125 0
6 0.125 0
5.75 0.125 0
5.875 0.125 0
5.75 0.25 0
5.875 0.25 0
5.875 0.125 0
6 0.125 0
5.875 0.25 0
6 0.25 0
5.5 0.25 0
5.625 0.25 0
5.5 0.375 0
5.625 0.375 0
5.625 0.25 0
5.75 0.25 0
5.625 0.375 0
5.75 0.375 0
5.5 0.375 0
5.625 0.375 0
5.5 0.5 0
5.625 0.5 0
5.625 0.375 0
5.75 0.375 0
5.625 0.5 0
5.75 0.5 0
5.75 0.25 0
5.875 0.25 0
5.75 0.375 0
5.875 0.375 0
5.875 0.25 0
6 0.25 0
5.875 0.375 0
6 0.375 0
5.75 0.375 0
5.875 0.375 0
5.75 0.5 0
5.875 0.5 0
5.875 0.375 0
6 0.375 0
5.875 0.5 0
6 0.5 0
5 0.5 0
5.125 0.5 0
5 0.625 0
5.125 0.625 0
5.125 0.5 0
5.25 0.5 0
5.125 0.625 0
5.25 0.625 0
5 0.625 0
5.125 0.625 0
5 0.75 0
5.125 0.75 0
5.125 0.625 0
5.25 0.625 0
5.125 0.75 0
5.25 0.75 0
5.25 0.5 0
5.375 0.5 0
5.25 0.625 0
5.375 0.625 0
5.375 0.5 0
5.5 0.5 0
5.375 0.625 0
5.5 0.625 0
5.25 0.625 0
5.375 0.625 0
5.25 0.75 0
5.375 0.75 0
5.375 0.625 0
5.5 0.625 0
5.375 0.75 0
5.5 0.75 0
5 0.75 0
5.125 0.75 0
5 0.875 0
5.125 0.875 0
5.125 0.75 0
5.25 0.75 0
5.125 0.875 0
5.25 0.875 0
5 0.875 0
5.125 0.875 0
5 1 0
5.125 1 0
5.125 0.875 0
5.25 0.875 0
5.125 1 0
5.25 1 0
5.25 0.75 0
5.375 0.75 0
5.25 0.875 0
5.375 0.875 0
5.375 0.75 0
5.5 0.75 0
5.375 0.875 0
5.5 0.875 0
5.25 0.875 0
5.375 0.875 0
5.25 1 0
5.375 1 0
5.375 0.875 0
5.5 0.875 0
5.375 1 0
5.5 1 0
5.5 0.5 0
5.625 0.5 0
5.5 0.625 0
5.625 0.625 0
5.625 0.5 0
5.75 0.5 0
5.625 0.625 0
5.75 0.625 0
5.5 0.625 0
5.625 0.625 0
5.5 0.75 0
5.625 0.75 0
5.625 0.625 0
5.75 0.625 0
5.625 0.75 0
5.75 0.75 0
5.75 0.5 0
5.875 0.5 0
5.75 0.625 0
5.875 0.625 0
5.875 0.5 0
6 0.5 0
5.875 0.625 0
6 0.625 0
5.75 0.625 0
5.875 0.625 0
5.75 0.75 0
5.875 0.75 0
5.875 0.625 0
6 0.625 0
5.875 0.75 0
6 0.75 0
5.5 0.75 0
5.625 0.75 0
5.5 0.875 0
5.625 0.875 0
5.625 0.75 0
5.75 0.75 0
5.625 0.875 0
5.75 0.875 0
5.5 0.875 0
5.625 0.875 0
5.5 1 0
5.625 1 0
5.625 0.875 0
5.75 0.875 0
5.625 1 0
5.75 1 0
5.75 0.75 0
5.875 0.75 0
5.75 0.875 0
5.875 0.875 0
5.875 0.75 0
6 0.75 0
5.875 0.875 0
6 0.875 0
5.75 0.875 0
5.875 0.875 0
5.75 1 0
5.875 1 0
5.875 0.875 0
6 0.875 0
5.875 1 0
6 1 0
4 0 0
4.125 0 0
4 0.125 0
4.125 0.125 0
4.125 0 0
4.25 0 0
4.125 0.125 0
4.25 0.125 0
4 0.125 0
4.125 0.125 0
4 0.25 0
4.125 0.25 0
4.125 0.125 0
4.25 0.125 0
4.125 0.25 0
4.25 0.25 0
4.25 0 0
4.375 0 0
4.25 0.125 0
4.375 0.125 0
4.375 0 0
4.5 0 0
4.375 0.125 0
4.5 0.125 0
4.25 0.125 0
4.375 0.125 0
4.25 0.25 0
4.375 0.25 0
4.375 0.125 0
4.5 0.125 0
4.375 0.25 0
4.5 0.25 0
4 0.25 0
4.125 0.25 0
4 0.375 0
4.125 0.375 0
4.125 0.25 0
4.25 0.25 0
4.125 0.375 0
4.25 0.375 0
4 0.375 0
4.125 0.375 0
4 0.5 0
4.125 0.5 0
4.125 0.375 0
4.25 0.375 0
4.125 0.5 0
4.25 0.5 0
4.25 0.25 0
4.375 0.25 0
4.25 0.375 0
4.375 0.375 0
4.375 0.25 0
4.5 0.25 0
4.375 0.375 0
4.5 0.375 0
4.25 0.375 0
4.375 0.375 0
4.25 0.5 0
4.375 0.5 0
4.375 0.375 0
4.5 0.375 0
4.375 0.5 0
4.5 0.5 0
4.5 0 0
4.625 0 0
4.5 0.125 0
4.625 0.125 0
4.625 0 0
4.75 0 0
4.625 0.125 0
4.75 0.125 0
4.5 0.125 0
4.625 0.125 0
4.5 0.25 0
4.625 0.25 0
4.625 0.125 0
4.75 0.125 0
4.625 0.25 0
4.75 0.25 0
4.75 0 0
4.875 0 0
4.75 0.125 0
4.875 0.125 0
4.875 0 0
5 0 0
4.875 0.125 0
5 0.125 0
4.75 0.125 0
4.875 0.125 0
4.75 0.25 0
4.875 0.25 0
4.875 0.125 0
5 0.125 0
4.875 0.25 0
5 0.25 0
4.5 0.25 0
4.625 0.25 0
4.5 0.375 0
4.625 0.375 0
4.625 0.25 0
4.75 0.25 0
4.625 0.375 0
4.75 0.375 0
4.5 0.375 0
4.625 0.375 0
4.5 0.5 0
4.625 0.5 0
4.625 0.375 0
4.75 0.375 0
4.625 0.5 0
4.75 0.5 0
4.75 0.25 0
4.875 0.25 0
4.75 0.375 0
4.875 0.375 0
4.875 0.25 0
5 0.25 0
4.875 0.375 0
5 0.375 0
4.75 0.375 0
4.875 0.375 0
4.75 0.5 0
4.875 0.5 0
4.875 0.375 0
5 0.375 0
4.875 0.5 0
5 0.5 0
4 0.5 0
4.125 0.5 0
4 0.625 0
4.125 0.625 0
4.125 0.5 0
4.25 0.5 0
4.125 0.625 0
4.25 0.625 0
4 0.625 0
4.125 0.625 0
4 0.75 0
4.125 0.75 0
4.125 0.625 0
4.25 0.625 0
4.125 0.75 0
4.25 0.75 0
4.25 0.5 0
4.375 0.5 0
4.25 0.625 0
4.375 0.625 0
4.375 0.5 0
4.5 0.5 0
4.375 0.625 0
4.5 0.625 0
4.25 0.625 0
4.375 0.625 0
4.25 0.75 0
4.375 0.75 0
4.375 0.625 0
4.5 0.625 0
4.375 0.75 0
4.5 0.75 0
4 0.75 0
4.125 0.75 0
4 0.875 0
4.125 0.875 0
4.125 0.75 0
4.25 0.75 0
4.125 0.875 0
4.25 0.875 0
4 0.875 0
4.125 0.875 0
4 1 0
4.125 1 0
4.125 0.875 0
4.25 0.875 0
4.125 1 0
4.25 1 0
4.25 0.75 0
4.375 0.75 0
4.25 0.875 0
4.375 0.875 0
4.375 0.75 0
4.5 0.75 0
4.375 0.875 0
4.5 0.875 0
4.25 0.875 0
4.375 0.875 0
4.25 1 0
4.375 1 0
4.375 0.875 0
4.5 0.875 0
4.375 1 0
4.5 1 0
4.5 0.5 0
4.625 0.5 0
4.5 0.625 0
4.625 0.625 0
4.625 0.5 0
4.75 0.5 0
4.625 0.625 0
4.75 0.625 0
4.5 0.625 0
4.625 0.625 0
4.5 0.75 0
4.625 0.75 0
4.625 0.625 0
4.75 0.625 0
4.625 0.75 0
4.75 0.75 0
4.75 0.5 0
4.875 0.5 0
4.75 0.625 0
4.875 0.625 0
4.875 0.5 0
5 0.5 0
4.875 0.625 0
5 0.625 0
4.75 0.625 0
4.875 0.625 0
4.75 0.75 0
4.875 0.75 0
4.875 0.625 0
5 0.625 0
4.875 0.75 0
5 0.75 0
4.5 0.75 0
4.625 0.75 0
4.5 0.875 0
4.625 0.875 0
4.625 0.75 0
4.75 0.75 0
4.625 0.875 0
4.75 0.875 0
4.5 0.875 0
4.625 0.875 0
4.5 1 0
4.625 1 0
4.625 0.875 0
4.75 0.875 0
4.625 1 0
4.75 1 0
4.75 0.75 0
4.875 0.75 0
4.75 0.875 0
4.875 0.875 0
4.875 0.75 0
5 0.75 0
4.875 0.875 0
5 0.875 0
4.75 0.875 0
4.875 0.875 0
4.75 1 0
4.875 1 0
4.875 0.875 0
5 0.875 0
4.875 1 0
5 1 0
3 0 0
3.125 0 0
3 0.125 0
3.125 0.125 0
3.125 0 0
3.25 0 0
3.125 0.125 0
3.25 0.125 0
3 0.125 0
3.125 0.125 0
3 0.25 0
3.125 0.25 0
3.125 0.125 0
3.25 0.125 0
3.125 0.25 0
3.25 0.25 0
3.25 0 0
3.375 0 0
3.25 0.125 0
3.375 0.125 0
3.375 0 0
3.5 0 0
3.375 0.125 0
3.5 0.125 0
3.25 0.125 0
3.375 0.125 0
3.25 0.25 0
3.375 0.25 0
3.375 0.125 0
3.5 0.125 0
3.375 0.25 0
3.5 0.25 0
3 0.25 0
3.125 0.25 0
3 0.375 0
3.125 0.375 0
3.125 0.25 0
3.25 0.25 0
3.125 0.375 0
3.25 0.375 0
3 0.375 0
3.125 0.375 0
3 0.5 0
3.125 0.5 0
3.125 0.375 0
3.25 0.375 0
3.125 0.5 0
3.25 0.5 0
3.25 0.25 0
3.375 0.25 0
3.25 0.375 0
3.375 0.375 0
3.375 0.25 0
3.5 0.25 0
3.375 0.375 0
3.5 0.375 0
3.25 0.375 0
3.375 0.375 0
3.25 0.5 0
3.375 0.5 0
3.375 0.375 0
3.5 0.375 0
3.375 0.5 0
3.5 0.5 0
3.5 0 0
3.625 0 0
3.5 0.125 0
3.625 0.125 0
3.625 0 0
3.75 0 0
3.625 0.125 0
3.75 0.125 0
3.5 0.125 0
3.625 0.125 0
3.5 0.25 0
3.625 0.25 0
3.625 0.125 0
3.75 0.125 0
3.625 0.25 0
3.75 0.25 0
3.75 0 0
3.875 0 0
3.75 0.125 0
3.875 0.125 0
3.875 0 0
4 0 0
3.875 0.125 0
4 0.125 0
3.75 0.125 0
3.875 0.125 0
3.75 0.25 0
3.875 0.25 0
3.875 0.125 0
4 0.125 0
3.875 0.25 0
4 0.25 0
3.5 0.25 0
3.625 0.25 0
3.5 0.375 0
3.625 0.375 0
3.625 0.25 0
3.75 0.25 0
3.625 0.375 0
3.75 0.375 0
3.5 0.375 0
3.625 0.375 0
3.5 0.5 0
3.625 0.5 0
3.625 0.375 0
3.75 0.375 0
3.625 0.5 0
3.75 0.5 0
3.75 0.25 0
3.875 0.25 0
3.75 0.375 0
3.875 0.375 0
3.875 0.25 0
4 0.25 0
3.875 0.375 0
4 0.375 0
3.75 0.375 0
3.875 0.375 0
3.75 0.5 0
3.875 0.5 0
3.875 0.375 0
4 0.375 0
3.875 0.5 0
4 0.5 0
3 0.5 0
3.125 0.5 0
3 0.625 0
3.125 0.625 0
3.125 0.5 0
3.25 0.5 0
3.125 0.625 0
3.25 0.625 0
3 0.625 0
3.125 0.625 0
3 0.75 0
3.125 0.75 0
3.125 0.625 0
3.25 0.625 0
3.125 0.75 0
3.25 0.75 0
3.25 0.5 0
3.375 0.5 0
3.25 0.625 0
3.375 0.625 0
3.375 0.5 0
3.5 0.5 0
3.375 0.625 0
3.5 0.625 0
3.25 0.625 0
3.375 0.625 0
3.25 0.75 0
3.375 0.75 0
3.375 0.625 0
3.5 0.625 0
3.375 0.75 0
3.5 0.75 0
3 0.75 0
3.125 0.75 0
3 0.875 0
3.125 0.875 0
3.125 0.75 0
3.25 0.75 0
3.125 0.875 0
3.25 0.875 0
3 0.875 0
3.125 0.875 0
3 1 0
3.125 1 0
3.125 0.875 0
3.25 0.875 0
3.125 1 0
3.25 1 0
3.25 0.75 0
3.375 0.75 0
3.25 0.875 0
3.375 0.875 0
3.375 0.75 0
3.5 0.75 0
3.375 0.875 0
3.5 0.875 0
3.25 0.875 0
3.375 0.875 0
3.25 1 0
3.375 1 0
3.375 0.875 0
3.5 0.875 0
3.375 1 0
3.5 1 0
3.5 0.5 0
3.625 0.5 0
3.5 0.625 0
3.625 0.625 0
3.625 0.5 0
3.75 0.5 0
3.625 0.625 0
3.75 0.625 0
3.5 0.625 0
3.625 0.625 0
3.5 0.75 0
3.625 0.75 0
3.625 0.625 0
3.75 0.625 0
3.625 0.75 0
3.75 0.75 0
3.75 0.5 0
3.875 0.5 0
3.75 0.625 0
3.875 0.625 0
3.875 0.5 0
4 0.5 0
3.875 0.625 0
4 0.625 0
3.75 0.625 0
3.875 0.625 0
3.75 0.75 0
3.875 0.75 0
3.875 0.625 0
4 0.625 0
3.875 0.75 0
4 0.75 0
3.5 0.75 0
3.625 0.75 0
3.5 0.875 0
3.625 0.875 0
3.625 0.75 0
3.75 0.75 0
3.625 0.875 0
3.75 0.875 0
3.5 0.875 0
3.625 0.875 0
3.5 1 0
3.625 1 0
3.625 0.875 0
3.75 0.875 0
3.625 1 0
3.75 1 0
3.75 0.75 0
3.875 0.75 0
3.75 0.875 0
3.875 0.875 0
3.875 0.75 0
4 0.75 0
3.875 0.875 0
4 0.875 0
3.75 0.875 0
3.875 0.875 0
3.75 1 0
3.875 1 0
3.875 0.875 0
4 0.875 0
3.875 1 0
4 1 0
2 0 0
2.125 0 0
2 0.125 0
2.125 0.125 0
2.125 0 0
2.25 0 0
2.125 0.125 0
2.25 0.125 0
2 0.125 0
2.125 0.125 0
2 0.25 0
2.125 0.25 0
2.125 0.125 0
2.25 0.125 0
2.125 0.25 0
2.25 0.25 0
2.25 0 0
2.375 0 0
2.25 0.125 0
2.375 0.125 0
2.375 0 0
2.5 0 0
2.375 0.125 0
2.5 0.125 0
2.25 0.125 0
2.375 0.125 0
2.25 0.25 0
2.375 0.25 0
2.375 0.125 0
2.5 0.125 0
2.375 0.25 0
2.5 0.25 0
2 0.25 0
2.125 0.25 0
2 0.375 0
2.125 0.375 0
2.125 0.25 0
2.25 0.25 0
2.125 0.375 0
2.25 0.375 0
2 0.375 0
2.125 0.375 0
2 0.5 0
2.125 0.5 0
2.125 0.375 0
2.25 0.375 0
2.125 0.5 0
2.25 0.5 0
2.25 0.25 0
2.375 0.25 0
2.25 0.375 0
2.375 0.375 0
2.375 0.25 0
[...]
POINT_DATA 1536
VECTORS displacements double
39.5293 -46.2885 0
40.2522 -41.3681 0
34.7701 -46.522 0
35.371 -41.5667 0
40.2522 -41.3681 0
41.0053 -36.2803 0
35.371 -41.5667 0
35.8853 -36.5063 0
34.7701 -46.522 0
35.371 -41.5667 0
30.7096 -46.7132 0
31.0808 -41.7175 0
35.371 -41.5667 0
35.8853 -36.5063 0
31.0808 -41.7175 0
31.4277 -36.6311 0
41.0053 -36.2803 0
41.6745 -31.0032 0
35.8853 -36.5063 0
36.4386 -31.1788 0
41.6745 -31.0032 0
42.39 -25.5584 0
36.4386 -31.1788 0
36.9076 -25.777 0
35.8853 -36.5063 0
36.4386 -31.1788 0
31.4277 -36.6311 0
31.7867 -31.3085 0
36.4386 -31.1788 0
36.9076 -25.777 0
31.7867 -31.3085 0
32.069 -25.8646 0
30.7096 -46.7132 0
31.0808 -41.7175 0
26.6908 -46.7406 0
26.9314 -41.8765 0
31.0808 -41.7175 0
31.4277 -36.6311 0
26.9314 -41.8765 0
27.0617 -36.7068 0
26.6908 -46.7406 0
26.9314 -41.8765 0
22.8245 -46.8327 0
22.7983 -41.8181 0
26.9314 -41.8765 0
27.0617 -36.7068 0
22.7983 -41.8181 0
22.8652 -36.7751 0
31.4277 -36.6311 0
31.7867 -31.3085 0
27.0617 -36.7068 0
27.1791 -31.3463 0
31.7867 -31.3085 0
32.069 -25.8646 0
27.1791 -31.3463 0
27.3469 -25.8771 0
27.0617 -36.7068 0
27.1791 -31.3463 0
22.8652 -36.7751 0
22.7827 -31.312 0
27.1791 -31.3463 0
27.3469 -25.8771 0
22.7827 -31.312 0
22.7294 -25.8449 0
42.39 -25.5584 0
43.0227 -19.9448 0
36.9076 -25.777 0
37.4231 -20.0845 0
43.0227 -19.9448 0
43.8117 -14.0829 0
37.4231 -20.0845 0
37.7642 -14.3384 0
36.9076 -25.777 0
37.4231 -20.0845 0
32.069 -25.8646 0
32.3781 -20.1614 0
37.4231 -20.0845 0
37.7642 -14.3384 0
32.3781 -20.1614 0
32.5955 -14.3804 0
43.8117 -14.0829 0
44.6074 -7.89609 0
37.7642 -14.3384 0
38.0073 -7.79317 0
44.6074 -7.89609 0
45.0266 0 0
38.0073 -7.79317 0
38.2327 -1.44001 0
37.7642 -14.3384 0
38.0073 -7.79317 0
32.5955 -14.3804 0
32.6304 -8.13522 0
38.0073 -7.79317 0
38.2327 -1.44001 0
32.6304 -8.13522 0
32.7415 -2.29165 0
32.069 -25.8646 0
32.3781 -20.1614 0
27.3469 -25.8771 0
27.4358 -20.2414 0
32.3781 -20.1614 0
32.5955 -14.3804 0
27.4358 -20.2414 0
27.4197 -14.4353 0
27.3469 -25.8771 0
27.4358 -20.2414 0
22.7294 -25.8449 0
22.6419 -20.2963 0
27.4358 -20.2414 0
27.4197 -14.4353 0
22.6419 -20.2963 0
22.4812 -14.6484 0
32.5955 -14.3804 0
32.6304 -8.13522 0
27.4197 -14.4353 0
27.4049 -8.61835 0
32.6304 -8.13522 0
32.7415 -2.29165 0
27.4049 -8.61835 0
27.3986 -2.73549 0
27.4197 -14.4353 0
27.4049 -8.61835 0
22.4812 -14.6484 0
22.3695 -8.91546 0
27.4049 -8.61835 0
27.3986 -2.73549 0
22.3695 -8.91546 0
22.4694 -3.47589 0
22.8245 -46.8327 0
22.7983 -41.8181 0
18.9335 -46.8132 0
18.7558 -41.8255 0
22.7983 -41.8181 0
22.8652 -36.7751 0
18.7558 -41.8255 0
18.4752 -36.5969 0
18.9335 -46.8132 0
18.7558 -41.8255 0
14.8955 -46.6453 0
14.5853 -41.6927 0
18.7558 -41.8255 0
18.4752 -36.5969 0
14.5853 -41.6927 0
14.1894 -36.4951 0
22.8652 -36.7751 0
22.7827 -31.312 0
18.4752 -36.5969 0
18.3632 -31.2935 0
22.7827 -31.312 0
22.7294 -25.8449 0
18.3632 -31.2935 0
18.1335 -25.858 0
18.4752 -36.5969 0
18.3632 -31.2935 0
14.1894 -36.4951 0
13.7739 -31.2317 0
18.3632 -31.2935 0
18.1335 -25.858 0
13.7739 -31.2317 0
13.3976 -25.8485 0
14.8955 -46.6453 0
14.5853 -41.6927 0
10.6918 -46.414 0
10.0852 -41.4811 0
14.5853 -41.6927 0
14.1894 -36.4951 0
10.0852 -41.4811 0
9.53319 -36.4044 0
10.6918 -46.414 0
10.0852 -41.4811 0
6.06383 -46.1847 0
5.41676 -41.2608 0
10.0852 -41.4811 0
9.53319 -36.4044 0
5.41676 -41.2608 0
5.01527 -36.3796 0
14.1894 -36.4951 0
13.7739 -31.2317 0
9.53319 -36.4044 0
9.10523 -31.1437 0
13.7739 -31.2317 0
13.3976 -25.8485 0
9.10523 -31.1437 0
8.81785 -25.9174 0
9.53319 -36.4044 0
9.10523 -31.1437 0
5.01527 -36.3796 0
4.41994 -31.1104 0
9.10523 -31.1437 0
8.81785 -25.9174 0
4.41994 -31.1104 0
3.77942 -25.7799 0
22.7294 -25.8449 0
22.6419 -20.2963 0
18.1335 -25.858 0
17.849 -20.3638 0
22.6419 -20.2963 0
22.4812 -14.6484 0
17.849 -20.3638 0
17.6895 -14.8299 0
18.1335 -25.858 0
17.849 -20.3638 0
13.3976 -25.8485 0
13.1954 -20.4641 0
17.849 -20.3638 0
17.6895 -14.8299 0
13.1954 -20.4641 0
12.9855 -14.9341 0
22.4812 -14.6484 0
22.3695 -8.91546 0
17.6895 -14.8299 0
17.6203 -9.24325 0
22.3695 -8.91546 0
22.4694 -3.47589 0
17.6203 -9.24325 0
17.695 -4.05404 0
17.6895 -14.8299 0
17.6203 -9.24325 0
12.9855 -14.9341 0
12.8954 -9.49204 0
17.6203 -9.24325 0
17.695 -4.05404 0
12.8954 -9.49204 0
12.926 -4.37957 0
13.3976 -25.8485 0
13.1954 -20.4641 0
8.81785 -25.9174 0
8.43375 -20.4412 0
13.1954 -20.4641 0
12.9855 -14.9341 0
8.43375 -20.4412 0
8.16516 -14.9645 0
8.81785 -25.9174 0
8.43375 -20.4412 0
3.77942 -25.7799 0
3.3109 -20.3453 0
8.43375 -20.4412 0
8.16516 -14.9645 0
3.3109 -20.3453 0
3.03211 -14.9236 0
12.9855 -14.9341 0
12.8954 -9.49204 0
8.16516 -14.9645 0
8.03755 -9.60617 0
12.8954 -9.49204 0
12.926 -4.37957 0
8.03755 -9.60617 0
8.01507 -4.48229 0
8.16516 -14.9645 0
8.03755 -9.60617 0
3.03211 -14.9236 0
2.94059 -9.62505 0
8.03755 -9.60617 0
8.01507 -4.48229 0
2.94059 -9.62505 0
2.93549 -4.48812 0
32.3079 -78.0268 0
33.3494 -74.9131 0
29.4753 -78.3191 0
30.1984 -75.2099 0
33.3494 -74.9131 0
34.3034 -71.5233 0
30.1984 -75.2099 0
30.9484 -71.7962 0
29.4753 -78.3191 0
30.1984 -75.2099 0
27.131 -78.5302 0
27.5538 -75.3873 0
30.1984 -75.2099 0
30.9484 -71.7962 0
27.5538 -75.3873 0
27.9845 -71.9996 0
34.3034 -71.5233 0
35.2584 -67.9136 0
30.9484 -71.7962 0
31.6362 -68.1613 0
35.2584 -67.9136 0
36.2262 -64.0349 0
31.6362 -68.1613 0
32.2363 -64.3066 0
30.9484 -71.7962 0
31.6362 -68.1613 0
27.9845 -71.9996 0
28.4516 -68.2924 0
31.6362 -68.1613 0
32.2363 -64.3066 0
28.4516 -68.2924 0
28.9461 -64.4369 0
27.131 -78.5302 0
27.5538 -75.3873 0
25.0089 -78.6035 0
25.1237 -75.4777 0
27.5538 -75.3873 0
27.9845 -71.9996 0
25.1237 -75.4777 0
25.282 -72.038 0
25.0089 -78.6035 0
25.1237 -75.4777 0
22.8931 -78.5435 0
22.7591 -75.4198 0
25.1237 -75.4777 0
25.282 -72.038 0
22.7591 -75.4198 0
22.7064 -71.9743 0
27.9845 -71.9996 0
28.4516 -68.2924 0
25.282 -72.038 0
25.5232 -68.3778 0
28.4516 -68.2924 0
28.9461 -64.4369 0
25.5232 -68.3778 0
25.7113 -64.4828 0
25.282 -72.038 0
25.5232 -68.3778 0
22.7064 -71.9743 0
22.652 -68.3672 0
25.5232 -68.3778 0
25.7113 -64.4828 0
22.652 -68.3672 0
22.6921 -64.4389 0
36.2262 -64.0349 0
37.1026 -59.8491 0
32.2363 -64.3066 0
32.9037 -60.1007 0
37.1026 -59.8491 0
37.8978 -55.5035 0
32.9037 -60.1007 0
33.5937 -55.7384 0
32.2363 -64.3066 0
32.9037 -60.1007 0
28.9461 -64.4369 0
29.4191 -60.336 0
32.9037 -60.1007 0
33.5937 -55.7384 0
29.4191 -60.336 0
29.8685 -55.94 0
37.8978 -55.5035 0
38.7228 -51.016 0
33.5937 -55.7384 0
34.2016 -51.2522 0
38.7228 -51.016 0
39.5293 -46.2885 0
34.2016 -51.2522 0
34.7701 -46.522 0
33.5937 -55.7384 0
34.2016 -51.2522 0
29.8685 -55.94 0
30.274 -51.3917 0
34.2016 -51.2522 0
34.7701 -46.522 0
30.274 -51.3917 0
30.7096 -46.7132 0
28.9461 -64.4369 0
29.4191 -60.336 0
25.7113 -64.4828 0
25.966 -60.3973 0
29.4191 -60.336 0
29.8685 -55.94 0
25.966 -60.3973 0
26.2375 -56.0926 0
25.7113 -64.4828 0
25.966 -60.3973 0
22.6921 -64.4389 0
22.6037 -60.3888 0
25.966 -60.3973 0
26.2375 -56.0926 0
22.6037 -60.3888 0
22.6661 -56.0651 0
29.8685 -55.94 0
30.274 -51.3917 0
26.2375 -56.0926 0
26.4762 -51.5574 0
30.274 -51.3917 0
30.7096 -46.7132 0
26.4762 -51.5574 0
26.6908 -46.7406 0
26.2375 -56.0926 0
26.4762 -51.5574 0
22.6661 -56.0651 0
22.7889 -51.6128 0
26.4762 -51.5574 0
26.6908 -46.7406 0
22.7889 -51.6128 0
22.8245 -46.8327 0
22.8931 -78.5435 0
22.7591 -75.4198 0
20.7186 -78.358 0
20.3601 -75.2299 0
22.7591 -75.4198 0
22.7064 -71.9743 0
20.3601 -75.2299 0
20.0546 -71.8591 0
20.7186 -78.358 0
20.3601 -75.2299 0
18.4657 -78.1028 0
17.926 -75.0002 0
20.3601 -75.2299 0
20.0546 -71.8591 0
17.926 -75.0002 0
17.419 -71.6577 0
22.7064 -71.9743 0
22.652 -68.3672 0
20.0546 -71.8591 0
19.8194 -68.2445 0
22.652 -68.3672 0
22.6921 -64.4389 0
19.8194 -68.2445 0
19.5588 -64.3708 0
20.0546 -71.8591 0
19.8194 -68.2445 0
17.419 -71.6577 0
16.9319 -68.0799 0
19.8194 -68.2445 0
19.5588 -64.3708 0
16.9319 -68.0799 0
16.5199 -64.2054 0
18.4657 -78.1028 0
17.926 -75.0002 0
16.1302 -77.8221 0
15.3368 -74.7339 0
17.926 -75.0002 0
17.419 -71.6577 0
15.3368 -74.7339 0
14.6245 -71.4302 0
16.1302 -77.8221 0
15.3368 -74.7339 0
13.2086 -77.5168 0
12.2307 -74.4489 0
15.3368 -74.7339 0
14.6245 -71.4302 0
12.2307 -74.4489 0
11.2322 -71.1378 0
17.419 -71.6577 0
16.9319 -68.0799 0
14.6245 -71.4302 0
13.8864 -67.832 0
16.9319 -68.0799 0
16.5199 -64.2054 0
13.8864 -67.832 0
13.2048 -64.0343 0
14.6245 -71.4302 0
13.8864 -67.832 0
11.2322 -71.1378 0
10.304 -67.5644 0
13.8864 -67.832 0
13.2048 -64.0343 0
10.304 -67.5644 0
9.37814 -63.7706 0
22.6921 -64.4389 0
22.6037 -60.3888 0
19.5588 -64.3708 0
19.4528 -60.2902 0
22.6037 -60.3888 0
22.6661 -56.0651 0
19.4528 -60.2902 0
19.209 -55.9979 0
19.5588 -64.3708 0
19.4528 -60.2902 0
16.5199 -64.2054 0
16.0637 -60.1701 0
19.4528 -60.2902 0
19.209 -55.9979 0
16.0637 -60.1701 0
15.6844 -55.8699 0
22.6661 -56.0651 0
22.7889 -51.6128 0
19.209 -55.9979 0
19.0052 -51.5023 0
22.7889 -51.6128 0
22.8245 -46.8327 0
19.0052 -51.5023 0
18.9335 -46.8132 0
19.209 -55.9979 0
19.0052 -51.5023 0
15.6844 -55.8699 0
15.2787 -51.3295 0
19.0052 -51.5023 0
18.9335 -46.8132 0
15.2787 -51.3295 0
14.8955 -46.6453 0
16.5199 -64.2054 0
16.0637 -60.1701 0
13.2048 -64.0343 0
12.5639 -59.9726 0
16.0637 -60.1701 0
15.6844 -55.8699 0
12.5639 -59.9726 0
11.9024 -55.6598 0
13.2048 -64.0343 0
12.5639 -59.9726 0
9.37814 -63.7706 0
8.47248 -59.7137 0
12.5639 -59.9726 0
11.9024 -55.6598 0
8.47248 -59.7137 0
7.64214 -55.4201 0
15.6844 -55.8699 0
15.2787 -51.3295 0
11.9024 -55.6598 0
11.2991 -51.1539 0
15.2787 -51.3295 0
14.8955 -46.6453 0
11.2991 -51.1539 0
10.6918 -46.414 0
11.9024 -55.6598 0
11.2991 -51.1539 0
7.64214 -55.4201 0
6.81796 -50.9149 0
11.2991 -51.1539 0
10.6918 -46.414 0
6.81796 -50.9149 0
6.06383 -46.1847 0
22.5133 -89.6361 0
23.8134 -89.4684 0
22.5133 -90.0198 0
23.4948 -89.8507 0
23.8134 -89.4684 0
25.1041 -88.9695 0
23.4948 -89.8507 0
24.474 -89.3487 0
22.5133 -90.0198 0
23.4948 -89.8507 0
22.5133 -90.7298 0
23.4596 -90.52 0
23.4948 -89.8507 0
24.474 -89.3487 0
23.4596 -90.52 0
24.3192 -89.8774 0
25.1041 -88.9695 0
26.3779 -88.1523 0
24.474 -89.3487 0
25.4466 -88.5241 0
26.3779 -88.1523 0
27.655 -86.9752 0
25.4466 -88.5241 0
26.3346 -87.3314 0
24.474 -89.3487 0
25.4466 -88.5241 0
24.3192 -89.8774 0
25.0286 -88.8937 0
25.4466 -88.5241 0
26.3346 -87.3314 0
25.0286 -88.8937 0
25.4192 -87.6453 0
22.5133 -90.7298 0
23.4596 -90.52 0
22.5133 -91.432 0
23.2421 -91.1997 0
23.4596 -90.52 0
24.3192 -89.8774 0
23.2421 -91.1997 0
23.8918 -90.5178 0
22.5133 -91.432 0
23.2421 -91.1997 0
22.5133 -92.1065 0
22.9949 -91.8608 0
23.2421 -91.1997 0
23.8918 -90.5178 0
22.9949 -91.8608 0
23.3824 -91.1327 0
24.3192 -89.8774 0
25.0286 -88.8937 0
23.8918 -90.5178 0
24.3689 -89.3136 0
25.0286 -88.8937 0
25.4192 -87.6453 0
24.3689 -89.3136 0
24.626 -87.9694 0
23.8918 -90.5178 0
24.3689 -89.3136 0
23.3824 -91.1327 0
23.5725 -89.7373 0
24.3689 -89.3136 0
24.626 -87.9694 0
23.5725 -89.7373 0
23.5919 -88.1614 0
27.655 -86.9752 0
28.9216 -85.3306 0
26.3346 -87.3314 0
27.1287 -85.6796 0
28.9216 -85.3306 0
30.0888 -83.258 0
27.1287 -85.6796 0
27.9663 -83.5725 0
26.3346 -87.3314 0
27.1287 -85.6796 0
25.4192 -87.6453 0
25.8723 -85.8789 0
27.1287 -85.6796 0
27.9663 -83.5725 0
25.8723 -85.8789 0
26.3078 -83.8171 0
30.0888 -83.258 0
31.2371 -80.8247 0
27.9663 -83.5725 0
28.7116 -81.1427 0
31.2371 -80.8247 0
32.3079 -78.0268 0
28.7116 -81.1427 0
29.4753 -78.3191 0
27.9663 -83.5725 0
28.7116 -81.1427 0
26.3078 -83.8171 0
26.6908 -81.2932 0
28.7116 -81.1427 0
29.4753 -78.3191 0
26.6908 -81.2932 0
27.131 -78.5302 0
25.4192 -87.6453 0
25.8723 -85.8789 0
24.626 -87.9694 0
24.7497 -86.0656 0
25.8723 -85.8789 0
26.3078 -83.8171 0
24.7497 -86.0656 0
24.8158 -83.912 0
24.626 -87.9694 0
24.7497 -86.0656 0
23.5919 -88.1614 0
23.4977 -86.1982 0
24.7497 -86.0656 0
24.8158 -83.912 0
23.4977 -86.1982 0
23.2895 -83.891 0
26.3078 -83.8171 0
26.6908 -81.2932 0
24.8158 -83.912 0
24.9424 -81.3622 0
26.6908 -81.2932 0
27.131 -78.5302 0
24.9424 -81.3622 0
25.0089 -78.6035 0
24.8158 -83.912 0
24.9424 -81.3622 0
23.2895 -83.891 0
23.0982 -81.3867 0
24.9424 -81.3622 0
25.0089 -78.6035 0
23.0982 -81.3867 0
22.8931 -78.5435 0
22.5133 -92.1065 0
22.9949 -91.8608 0
22.5133 -92.8026 0
22.7243 -92.4857 0
22.9949 -91.8608 0
23.3824 -91.1327 0
22.7243 -92.4857 0
22.847 -91.7019 0
22.5133 -92.8026 0
22.7243 -92.4857 0
22.5133 -93.3976 0
22.2623 -93.1477 0
22.7243 -92.4857 0
22.847 -91.7019 0
22.2623 -93.1477 0
22.0089 -91.8923 0
23.3824 -91.1327 0
23.5725 -89.7373 0
22.847 -91.7019 0
22.6808 -90.0577 0
23.5725 -89.7373 0
23.5919 -88.1614 0
22.6808 -90.0577 0
22.4339 -88.2374 0
22.847 -91.7019 0
22.6808 -90.0577 0
22.0089 -91.8923 0
21.6192 -90.1866 0
22.6808 -90.0577 0
22.4339 -88.2374 0
21.6192 -90.1866 0
21.041 -88.1626 0
22.5133 -93.3976 0
22.2623 -93.1477 0
22.5133 -94.0997 0
21.8543 -93.3471 0
22.2623 -93.1477 0
22.0089 -91.8923 0
21.8543 -93.3471 0
21.1244 -91.8894 0
22.5133 -94.0997 0
21.8543 -93.3471 0
22.5133 -94.0088 0
20.9944 -93.1993 0
21.8543 -93.3471 0
21.1244 -91.8894 0
20.9944 -93.1993 0
19.688 -91.5858 0
22.0089 -91.8923 0
21.6192 -90.1866 0
21.1244 -91.8894 0
20.3545 -90.1396 0
21.6192 -90.1866 0
21.041 -88.1626 0
20.3545 -90.1396 0
19.4914 -88.0593 0
21.1244 -91.8894 0
20.3545 -90.1396 0
19.688 -91.5858 0
18.4677 -89.8111 0
20.3545 -90.1396 0
19.4914 -88.0593 0
18.4677 -89.8111 0
17.3547 -87.7352 0
23.5919 -88.1614 0
23.4977 -86.1982 0
22.4339 -88.2374 0
21.987 -86.1489 0
23.4977 -86.1982 0
23.2895 -83.891 0
21.987 -86.1489 0
21.5651 -83.8308 0
22.4339 -88.2374 0
21.987 -86.1489 0
21.041 -88.1626 0
20.4514 -86.0356 0
21.987 -86.1489 0
21.5651 -83.8308 0
20.4514 -86.0356 0
19.7524 -83.6268 0
23.2895 -83.891 0
23.0982 -81.3867 0
21.5651 -83.8308 0
21.1054 -81.2651 0
23.0982 -81.3867 0
22.8931 -78.5435 0
21.1054 -81.2651 0
20.7186 -78.358 0
21.5651 -83.8308 0
21.1054 -81.2651 0
19.7524 -83.6268 0
19.0786 -80.8863 0
21.1054 -81.2651 0
20.7186 -78.358 0
19.0786 -80.8863 0
18.4657 -78.1028 0
21.041 -88.1626 0
20.4514 -86.0356 0
19.4914 -88.0593 0
18.6217 -85.7662 0
20.4514 -86.0356 0
19.7524 -83.6268 0
18.6217 -85.7662 0
17.7504 -83.2975 0
19.4914 -88.0593 0
18.6217 -85.7662 0
17.3547 -87.7352 0
16.2865 -85.4468 0
18.6217 -85.7662 0
17.7504 -83.2975 0
16.2865 -85.4468 0
15.2583 -82.9845 0
19.7524 -83.6268 0
19.0786 -80.8863 0
17.7504 -83.2975 0
16.9121 -80.6606 0
19.0786 -80.8863 0
18.4657 -78.1028 0
16.9121 -80.6606 0
16.1302 -77.8221 0
17.7504 -83.2975 0
16.9121 -80.6606 0
15.2583 -82.9845 0
14.2375 -80.3578 0
16.9121 -80.6606 0
16.1302 -77.8221 0
14.2375 -80.3578 0
13.2086 -77.5168 0
12.7187 -78.0268 0
13.7895 -80.8247 0
15.5513 -78.3191 0
16.315 -81.1427 0
13.7895 -80.8247 0
14.9378 -83.258 0
16.315 -81.1427 0
17.0603 -83.5725 0
15.5513 -78.3191 0
16.315 -81.1427 0
17.8956 -78.5302 0
18.3358 -81.2932 0
16.315 -81.1427 0
17.0603 -83.5725 0
18.3358 -81.2932 0
18.7188 -83.8171 0
14.9378 -83.258 0
16.1051 -85.3306 0
17.0603 -83.5725 0
17.8979 -85.6796 0
16.1051 -85.3306 0
17.3717 -86.9752 0
17.8979 -85.6796 0
18.692 -87.3314 0
17.0603 -83.5725 0
17.8979 -85.6796 0
18.7188 -83.8171 0
19.1544 -85.8789 0
17.8979 -85.6796 0
18.692 -87.3314 0
19.1544 -85.8789 0
19.6075 -87.6453 0
17.8956 -78.5302 0
18.3358 -81.2932 0
20.0178 -78.6035 0
20.0842 -81.3622 0
18.3358 -81.2932 0
18.7188 -83.8171 0
20.0842 -81.3622 0
20.2108 -83.912 0
20.0178 -78.6035 0
20.0842 -81.3622 0
22.1335 -78.5435 0
21.9284 -81.3867 0
20.0842 -81.3622 0
20.2108 -83.912 0
21.9284 -81.3867 0
21.7371 -83.891 0
18.7188 -83.8171 0
19.1544 -85.8789 0
20.2108 -83.912 0
20.2769 -86.0656 0
19.1544 -85.8789 0
19.6075 -87.6453 0
20.2769 -86.0656 0
20.4007 -87.9694 0
20.2108 -83.912 0
20.2769 -86.0656 0
21.7371 -83.891 0
21.5289 -86.1982 0
20.2769 -86.0656 0
20.4007 -87.9694 0
21.5289 -86.1982 0
21.4348 -88.1614 0
17.3717 -86.9752 0
18.6487 -88.1523 0
18.692 -87.3314 0
19.58 -88.5241 0
18.6487 -88.1523 0
19.9225 -88.9695 0
19.58 -88.5241 0
20.5526 -89.3487 0
18.692 -87.3314 0
19.58 -88.5241 0
19.6075 -87.6453 0
19.998 -88.8937 0
19.58 -88.5241 0
20.5526 -89.3487 0
19.998 -88.8937 0
20.7075 -89.8774 0
19.9225 -88.9695 0
21.2132 -89.4684 0
20.5526 -89.3487 0
21.5318 -89.8507 0
21.2132 -89.4684 0
22.5133 -89.6361 0
21.5318 -89.8507 0
22.5133 -90.0198 0
20.5526 -89.3487 0
21.5318 -89.8507 0
20.7075 -89.8774 0
21.567 -90.52 0
21.5318 -89.8507 0
22.5133 -90.0198 0
21.567 -90.52 0
22.5133 -90.7298 0
19.6075 -87.6453 0
19.998 -88.8937 0
20.4007 -87.9694 0
20.6577 -89.3136 0
19.998 -88.8937 0
20.7075 -89.8774 0
20.6577 -89.3136 0
21.1348 -90.5178 0
20.4007 -87.9694 0
20.6577 -89.3136 0
21.4348 -88.1614 0
21.4541 -89.7373 0
20.6577 -89.3136 0
21.1348 -90.5178 0
21.4541 -89.7373 0
21.6443 -91.1327 0
20.7075 -89.8774 0
21.567 -90.52 0
21.1348 -90.5178 0
21.7845 -91.1997 0
21.567 -90.52 0
22.5133 -90.7298 0
21.7845 -91.1997 0
22.5133 -91.432 0
21.1348 -90.5178 0
21.7845 -91.1997 0
21.6443 -91.1327 0
22.0317 -91.8608 0
21.7845 -91.1997 0
22.5133 -91.432 0
22.0317 -91.8608 0
22.5133 -92.1065 0
22.1335 -78.5435 0
21.9284 -81.3867 0
24.308 -78.358 0
23.9212 -81.2651 0
21.9284 -81.3867 0
21.7371 -83.891 0
23.9212 -81.2651 0
23.4616 -83.8308 0
24.308 -78.358 0
23.9212 -81.2651 0
26.561 -78.1028 0
25.948 -80.8863 0
23.9212 -81.2651 0
23.4616 -83.8308 0
25.948 -80.8863 0
25.2742 -83.6268 0
21.7371 -83.891 0
21.5289 -86.1982 0
23.4616 -83.8308 0
23.0396 -86.1489 0
21.5289 -86.1982 0
21.4348 -88.1614 0
23.0396 -86.1489 0
22.5927 -88.2374 0
23.4616 -83.8308 0
23.0396 -86.1489 0
25.2742 -83.6268 0
24.5753 -86.0356 0
23.0396 -86.1489 0
22.5927 -88.2374 0
24.5753 -86.0356 0
23.9856 -88.1626 0
26.561 -78.1028 0
25.948 -80.8863 0
28.8964 -77.8221 0
28.1145 -80.6606 0
25.948 -80.8863 0
25.2742 -83.6268 0
28.1145 -80.6606 0
27.2762 -83.2975 0
28.8964 -77.8221 0
28.1145 -80.6606 0
31.818 -77.5168 0
30.7891 -80.3578 0
28.1145 -80.6606 0
27.2762 -83.2975 0
30.7891 -80.3578 0
29.7684 -82.9845 0
25.2742 -83.6268 0
24.5753 -86.0356 0
27.2762 -83.2975 0
26.4049 -85.7662 0
24.5753 -86.0356 0
23.9856 -88.1626 0
26.4049 -85.7662 0
25.5352 -88.0593 0
27.2762 -83.2975 0
26.4049 -85.7662 0
29.7684 -82.9845 0
28.7401 -85.4468 0
26.4049 -85.7662 0
25.5352 -88.0593 0
28.7401 -85.4468 0
27.6719 -87.7352 0
21.4348 -88.1614 0
21.4541 -89.7373 0
22.5927 -88.2374 0
22.3458 -90.0577 0
21.4541 -89.7373 0
21.6443 -91.1327 0
22.3458 -90.0577 0
22.1797 -91.7019 0
22.5927 -88.2374 0
22.3458 -90.0577 0
23.9856 -88.1626 0
23.4074 -90.1866 0
22.3458 -90.0577 0
22.1797 -91.7019 0
23.4074 -90.1866 0
23.0177 -91.8923 0
21.6443 -91.1327 0
22.0317 -91.8608 0
22.1797 -91.7019 0
22.3023 -92.4857 0
22.0317 -91.8608 0
22.5133 -92.1065 0
22.3023 -92.4857 0
22.5133 -92.8026 0
22.1797 -91.7019 0
22.3023 -92.4857 0
23.0177 -91.8923 0
22.7643 -93.1477 0
22.3023 -92.4857 0
22.5133 -92.8026 0
22.7643 -93.1477 0
22.5133 -93.3976 0
23.9856 -88.1626 0
23.4074 -90.1866 0
25.5352 -88.0593 0
24.6722 -90.1396 0
23.4074 -90.1866 0
23.0177 -91.8923 0
24.6722 -90.1396 0
23.9022 -91.8894 0
25.5352 -88.0593 0
24.6722 -90.1396 0
27.6719 -87.7352 0
26.5589 -89.8111 0
24.6722 -90.1396 0
23.9022 -91.8894 0
26.5589 -89.8111 0
25.3386 -91.5858 0
23.0177 -91.8923 0
22.7643 -93.1477 0
23.9022 -91.8894 0
23.1723 -93.3471 0
22.7643 -93.1477 0
22.5133 -93.3976 0
23.1723 -93.3471 0
22.5133 -94.0997 0
23.9022 -91.8894 0
23.1723 -93.3471 0
25.3386 -91.5858 0
24.0322 -93.1993 0
23.1723 -93.3471 0
22.5133 -94.0997 0
24.0322 -93.1993 0
22.5133 -94.0088 0
5.49733 -46.2885 0
6.30379 -51.016 0
10.2566 -46.522 0
10.825 -51.2522 0
6.30379 -51.016 0
7.12886 -55.5035 0
10.825 -51.2522 0
11.433 -55.7384 0
10.2566 -46.522 0
10.825 -51.2522 0
14.317 -46.7132 0
14.7526 -51.3917 0
10.825 -51.2522 0
11.433 -55.7384 0
14.7526 -51.3917 0
15.1582 -55.94 0
7.12886 -55.5035 0
7.92405 -59.8491 0
11.433 -55.7384 0
12.123 -60.1007 0
7.92405 -59.8491 0
8.80045 -64.0349 0
12.123 -60.1007 0
12.7903 -64.3066 0
11.433 -55.7384 0
12.123 -60.1007 0
15.1582 -55.94 0
15.6075 -60.336 0
12.123 -60.1007 0
12.7903 -64.3066 0
15.6075 -60.336 0
16.0806 -64.4369 0
14.317 -46.7132 0
14.7526 -51.3917 0
18.3358 -46.7406 0
18.5504 -51.5574 0
14.7526 -51.3917 0
15.1582 -55.94 0