# vtk DataFile Version 3.0
#This file was generated by the deal.II library on 2020/9/2 at 8:40:50
ASCII
DATASET UNSTRUCTURED_GRID

POINTS 1536 double
5 0 0
5.125 0 0
5 0.125 0
5.125 0.125 0
5.125 0 0
5.25 0 0
5.125 0.125 0
5.25 0.125 0
5 0.125 0
5.125 0.125 0
5 0.25 0
5.125 0.25 0
5.125 0.125 0
5.25 0.125 0
5.125 0.25 0
5.25 0.25 0
5.25 0 0
5.375 0 0
5.25 0.125 0
5.375 0.125 0
5.375 0 0
5.5 0 0
5.375 0.125 0
5.5 0.125 0
5.25 0.125 0
5.375 0.125 0
5.25 0.25 0
5.375 0.25 0
5.375 0.125 0
5.5 0.125 0
5.375 0.25 0
5.5 0.25 0
5 0.25 0
5.125 0.25 0
5 0.375 0
5.125 0.375 0
5.125 0.25 0
5.25 0.25 0
5.125 0.375 0
5.25 0.375 0
5 0.375 0
5.125 0.375 0
5 0.5 0
5.125 0.5 0
5.125 0.375 0
5.25 0.375 0
5.125 0.5 0
5.25 0.5 0
5.25 0.25 0
5.375 0.25 0
5.25 0.375 0
5.375 0.375 0
5.375 0.25 0
5.5 0.25 0
5.375 0.375 0
5.5 0.375 0
5.25 0.375 0
5.375 0.375 0
5.25 0.5 0
5.375 0.5 0
5.375 0.375 0
5.5 0.375 0
5.375 0.5 0
5.5 0.5 0
5.5 0 0
5.625 0 0
5.5 0.125 0
5.625 0.125 0
5.625 0 0
5.75 0 0
5.625 0.125 0
5.75 0.125 0
5.5 0.125 0
5.625 0.125 0
5.5 0.25 0
5.625 0.25 0
5.625 0.125 0
5.75 0.125 0
5.625 0.25 0
5.75 0.25 0
5.75 0 0
5.875 0 0
5.75 0.125 0
5.875 0.125 0
5.875 0 0
6 0 0
5.875 0.125 0
6 0.125 0
5.75 0.125 0
5.875 0.125 0
5.75 0.25 0
5.875 0.25 0
5.875 0.125 0
6 0.125 0
5.875 0.25 0
6 0.25 0
5.5 0.25 0
5.625 0.25 0
5.5 0.375 0
5.625 0.375 0
5.625 0.25 0
5.75 0.25 0
5.625 0.375 0
5.75 0.375 0
5.5 0.375 0
5.625 0.375 0
5.5 0.5 0
5.625 0.5 0
5.625 0.375 0
5.75 0.375 0
5.625 0.5 0
5.75 0.5 0
5.75 0.25 0
5.875 0.25 0
5.75 0.375 0
5.875 0.375 0
5.875 0.25 0
6 0.25 0
5.875 0.375 0
6 0.375 0
5.75 0.375 0
5.875 0.375 0
5.75 0.5 0
5.875 0.5 0
5.875 0.375 0
6 0.375 0
5.875 0.5 0
6 0.5 0
5 0.5 0
5.125 0.5 0
5 0.625 0
5.125 0.625 0
5.125 0.5 0
5.25 0.5 0
5.125 0.625 0
5.25 0.625 0
5 0.625 0
5.125 0.625 0
5 0.75 0
5.125 0.75 0
5.125 0.625 0
5.25 0.625 0
5.125 0.75 0
5.25 0.75 0
5.25 0.5 0
5.375 0.5 0
5.25 0.625 0
5.375 0.625 0
5.375 0.5 0
5.5 0.5 0
5.375 0.625 0
5.5 0.625 0
5.25 0.625 0
5.375 0.625 0
5.25 0.75 0
5.375 0.75 0
5.375 0.625 0
5.5 0.625 0
5.375 0.75 0
5.5 0.75 0
5 0.75 0
5.125 0.75 0
5 0.875 0
5.125 0.875 0
5.125 0.75 0
5.25 0.75 0
5.125 0.875 0
5.25 0.875 0
5 0.875 0
5.125 0.875 0
5 1 0
5.125 1 0
5.125 0.875 0
5.25 0.875 0
5.125 1 0
5.25 1 0
5.25 0.75 0
5.375 0.75 0
5.25 0.875 0
5.375 0.875 0
5.375 0.75 0
5.5 0.75 0
5.375 0.875 0
5.5 0.875 0
5.25 0.875 0
5.375 0.875 0
5.25 1 0
5.375 1 0
5.375 0.875 0
5.5 0.875 0
5.375 1 0
5.5 1 0
5.5 0.5 0
5.625 0.5 0
5.5 0.625 0
5.625 0.625 0
5.625 0.5 0
5.75 0.5 0
5.625 0.625 0
5.75 0.625 0
5.5 0.625 0
5.625 0.625 0
5.5 0.75 0
5.625 0.75 0
5.625 0.625 0
5.75 0.625 0
5.625 0.75 0
5.75 0.75 0
5.75 0.5 0
5.875 0.5 0
5.75 0.625 0
5.875 0.625 0
5.875 0.5 0
6 0.5 0
5.875 0.625 0
6 0.625 0
5.75 0.625 0
5.875 0.625 0
5.75 0.75 0
5.875 0.75 0
5.875 0.625 0
6 0.625 0
5.875 0.75 0
6 0.75 0
5.5 0.75 0
5.625 0.75 0
5.5 0.875 0
5.625 0.875 0
5.625 0.75 0
5.75 0.75 0
5.625 0.875 0
5.75 0.875 0
5.5 0.875 0
5.625 0.875 0
5.5 1 0
5.625 1 0
5.625 0.875 0
5.75 0.875 0
5.625 1 0
5.75 1 0
5.75 0.75 0
5.875 0.75 0
5.75 0.875 0
5.875 0.875 0
5.875 0.75 0
6 0.75 0
5.875 0.875 0
6 0.875 0
5.75 0.875 0
5.875 0.875 0
5.75 1 0
5.875 1 0
5.875 0.875 0
6 0.875 0
5.875 1 0
6 1 0
4 0 0
4.125 0 0
4 0.125 0
4.125 0.125 0
4.125 0 0
4.25 0 0
4.125 0.125 0
4.25 0.125 0
4 0.125 0
4.125 0.125 0
4 0.25 0
4.125 0.25 0
4.125 0.125 0
4.25 0.125 0
4.125 0.25 0
4.25 0.25 0
4.25 0 0
4.375 0 0
4.25 0.125 0
4.375 0.125 0
4.375 0 0
4.5 0 0
4.375 0.125 0
4.5 0.125 0
4.25 0.125 0
4.375 0.125 0
4.25 0.25 0
4.375 0.25 0
4.375 0.125 0
4.5 0.125 0
4.375 0.25 0
4.5 0.25 0
4 0.25 0
4.125 0.25 0
4 0.375 0
4.125 0.375 0
4.125 0.25 0
4.25 0.25 0
4.125 0.375 0
4.25 0.375 0
4 0.375 0
4.125 0.375 0
4 0.5 0
4.125 0.5 0
4.125 0.375 0
4.25 0.375 0
4.125 0.5 0
4.25 0.5 0
4.25 0.25 0
4.375 0.25 0
4.25 0.375 0
4.375 0.375 0
4.375 0.25 0
4.5 0.25 0
4.375 0.375 0
4.5 0.375 0
4.25 0.375 0
4.375 0.375 0
4.25 0.5 0
4.375 0.5 0
4.375 0.375 0
4.5 0.375 0
4.375 0.5 0
4.5 0.5 0
4.5 0 0
4.625 0 0
4.5 0.125 0
4.625 0.125 0
4.625 0 0
4.75 0 0
4.625 0.125 0
4.75 0.125 0
4.5 0.125 0
4.625 0.125 0
4.5 0.25 0
4.625 0.25 0
4.625 0.125 0
4.75 0.125 0
4.625 0.25 0
4.75 0.25 0
4.75 0 0
4.875 0 0
4.75 0.125 0
4.875 0.125 0
4.875 0 0
5 0 0
4.875 0.125 0
5 0.125 0
4.75 0.125 0
4.875 0.125 0
4.75 0.25 0
4.875 0.25 0
4.875 0.125 0
5 0.125 0
4.875 0.25 0
5 0.25 0
4.5 0.25 0
4.625 0.25 0
4.5 0.375 0
4.625 0.375 0
4.625 0.25 0
4.75 0.25 0
4.625 0.375 0
4.75 0.375 0
4.5 0.375 0
4.625 0.375 0
4.5 0.5 0
4.625 0.5 0
4.625 0.375 0
4.75 0.375 0
4.625 0.5 0
4.75 0.5 0
4.75 0.25 0
4.875 0.25 0
4.75 0.375 0
4.875 0.375 0
4.875 0.25 0
5 0.25 0
4.875 0.375 0
5 0.375 0
4.75 0.375 0
4.875 0.375 0
4.75 0.5 0
4.875 0.5 0
4.875 0.375 0
5 0.375 0
4.875 0.5 0
5 0.5 0
4 0.5 0
4.125 0.5 0
4 0.625 0
4.125 0.625 0
4.125 0.5 0
4.25 0.5 0
4.125 0.625 0
4.25 0.625 0
4 0.625 0
4.125 0.625 0
4 0.75 0
4.125 0.75 0
4.125 0.625 0
4.25 0.625 0
4.125 0.75 0
4.25 0.75 0
4.25 0.5 0
4.375 0.5 0
4.25 0.625 0
4.375 0.625 0
4.375 0.5 0
4.5 0.5 0
4.375 0.625 0
4.5 0.625 0
4.25 0.625 0
4.375 0.625 0
4.25 0.75 0
4.375 0.75 0
4.375 0.625 0
4.5 0.625 0
4.375 0.75 0
4.5 0.75 0
4 0.75 0
4.125 0.75 0
4 0.875 0
4.125 0.875 0
4.125 0.75 0
4.25 0.75 0
4.125 0.875 0
4.25 0.875 0
4 0.875 0
4.125 0.875 0
4 1 0
4.125 1 0
4.125 0.875 0
4.25 0.875 0
4.125 1 0
4.25 1 0
4.25 0.75 0
4.375 0.75 0
4.25 0.875 0
4.375 0.875 0
4.375 0.75 0
4.5 0.75 0
4.375 0.875 0
4.5 0.875 0
4.25 0.875 0
4.375 0.875 0
4.25 1 0
4.375 1 0
4.375 0.875 0
4.5 0.875 0
4.375 1 0
4.5 1 0
4.5 0.5 0
4.625 0.5 0
4.5 0.625 0
4.625 0.625 0
4.625 0.5 0
4.75 0.5 0
4.625 0.625 0
4.75 0.625 0
4.5 0.625 0
4.625 0.625 0
4.5 0.75 0
4.625 0.75 0
4.625 0.625 0
4.75 0.625 0
4.625 0.75 0
4.75 0.75 0
4.75 0.5 0
4.875 0.5 0
4.75 0.625 0
4.875 0.625 0
4.875 0.5 0
5 0.5 0
4.875 0.625 0
5 0.625 0
4.75 0.625 0
4.875 0.625 0
4.75 0.75 0
4.875 0.75 0
4.875 0.625 0
5 0.625 0
4.875 0.75 0
5 0.75 0
4.5 0.75 0
4.625 0.75 0
4.5 0.875 0
4.625 0.875 0
4.625 0.75 0
4.75 0.75 0
4.625 0.875 0
4.75 0.875 0
4.5 0.875 0
4.625 0.875 0
4.5 1 0
4.625 1 0
4.625 0.875 0
4.75 0.875 0
4.625 1 0
4.75 1 0
4.75 0.75 0
4.875 0.75 0
4.75 0.875 0
4.875 0.875 0
4.875 0.75 0
5 0.75 0
4.875 0.875 0
5 0.875 0
4.75 0.875 0
4.875 0.875 0
4.75 1 0
4.875 1 0
4.875 0.875 0
5 0.875 0
4.875 1 0
5 1 0
3 0 0
3.125 0 0
3 0.125 0
3.125 0.125 0
3.125 0 0
3.25 0 0
3.125 0.125 0
3.25 0.125 0
3 0.125 0
3.125 0.125 0
3 0.25 0
3.125 0.25 0
3.125 0.125 0
3.25 0.125 0
3.125 0.25 0
3.25 0.25 0
3.25 0 0
3.375 0 0
3.25 0.125 0
3.375 0.125 0
3.375 0 0
3.5 0 0
3.375 0.125 0
3.5 0.125 0
3.25 0.125 0
3.375 0.125 0
3.25 0.25 0
3.375 0.25 0
3.375 0.125 0
3.5 0.125 0
3.375 0.25 0
3.5 0.25 0
3 0.25 0
3.125 0.25 0
3 0.375 0
3.125 0.375 0
3.125 0.25 0
3.25 0.25 0
3.125 0.375 0
3.25 0.375 0
3 0.375 0
3.125 0.375 0
3 0.5 0
3.125 0.5 0
3.125 0.375 0
3.25 0.375 0
3.125 0.5 0
3.25 0.5 0
3.25 0.25 0
3.375 0.25 0
3.25 0.375 0
3.375 0.375 0
3.375 0.25 0
3.5 0.25 0
3.375 0.375 0
3.5 0.375 0
3.25 0.375 0
3.375 0.375 0
3.25 0.5 0
3.375 0.5 0
3.375 0.375 0
3.5 0.375 0
3.375 0.5 0
3.5 0.5 0
3.5 0 0
3.625 0 0
3.5 0.125 0
3.625 0.125 0
3.625 0 0
3.75 0 0
3.625 0.125 0
3.75 0.125 0
3.5 0.125 0
3.625 0.125 0
3.5 0.25 0
3.625 0.25 0
3.625 0.125 0
3.75 0.125 0
3.625 0.25 0
3.75 0.25 0
3.75 0 0
3.875 0 0
3.75 0.125 0
3.875 0.125 0
3.875 0 0
4 0 0
3.875 0.125 0
4 0.125 0
3.75 0.125 0
3.875 0.125 0
3.75 0.25 0
3.875 0.25 0
3.875 0.125 0
4 0.125 0
3.875 0.25 0
4 0.25 0
3.5 0.25 0
3.625 0.25 0
3.5 0.375 0
3.625 0.375 0
3.625 0.25 0
3.75 0.25 0
3.625 0.375 0
3.75 0.375 0
3.5 0.375 0
3.625 0.375 0
3.5 0.5 0
3.625 0.5 0
3.625 0.375 0
3.75 0.375 0
3.625 0.5 0
3.75 0.5 0
3.75 0.25 0
3.875 0.25 0
3.75 0.375 0
3.875 0.375 0
3.875 0.25 0
4 0.25 0
3.875 0.375 0
4 0.375 0
3.75 0.375 0
3.875 0.375 0
3.75 0.5 0
3.875 0.5 0
3.875 0.375 0
4 0.375 0
3.875 0.5 0
4 0.5 0
3 0.5 0
3.125 0.5 0
3 0.625 0
3.125 0.625 0
3.125 0.5 0
3.25 0.5 0
3.125 0.625 0
3.25 0.625 0
3 0.625 0
3.125 0.625 0
3 0.75 0
3.125 0.75 0
3.125 0.625 0
3.25 0.625 0
3.125 0.75 0
3.25 0.75 0
3.25 0.5 0
3.375 0.5 0
3.25 0.625 0
3.375 0.625 0
3.375 0.5 0
3.5 0.5 0
3.375 0.625 0
3.5 0.625 0
3.25 0.625 0
3.375 0.625 0
3.25 0.75 0
3.375 0.75 0
3.375 0.625 0
3.5 0.625 0
3.375 0.75 0
3.5 0.75 0
3 0.75 0
3.125 0.75 0
3 0.875 0
3.125 0.875 0
3.125 0.75 0
3.25 0.75 0
3.125 0.875 0
3.25 0.875 0
3 0.875 0
3.125 0.875 0
3 1 0
3.125 1 0
3.125 0.875 0
3.25 0.875 0
3.125 1 0
3.25 1 0
3.25 0.75 0
3.375 0.75 0
3.25 0.875 0
3.375 0.875 0
3.375 0.75 0
3.5 0.75 0
3.375 0.875 0
3.5 0.875 0
3.25 0.875 0
3.375 0.875 0
3.25 1 0
3.375 1 0
3.375 0.875 0
3.5 0.875 0
3.375 1 0
3.5 1 0
3.5 0.5 0
3.625 0.5 0
3.5 0.625 0
3.625 0.625 0
3.625 0.5 0
3.75 0.5 0
3.625 0.625 0
3.75 0.625 0
3.5 0.625 0
3.625 0.625 0
3.5 0.75 0
3.625 0.75 0
3.625 0.625 0
3.75 0.625 0
3.625 0.75 0
3.75 0.75 0
3.75 0.5 0
3.875 0.5 0
3.75 0.625 0
3.875 0.625 0
3.875 0.5 0
4 0.5 0
3.875 0.625 0
4 0.625 0
3.75 0.625 0
3.875 0.625 0
3.75 0.75 0
3.875 0.75 0
3.875 0.625 0
4 0.625 0
3.875 0.75 0
4 0.75 0
3.5 0.75 0
3.625 0.75 0
3.5 0.875 0
3.625 0.875 0
3.625 0.75 0
3.75 0.75 0
3.625 0.875 0
3.75 0.875 0
3.5 0.875 0
3.625 0.875 0
3.5 1 0
3.625 1 0
3.625 0.875 0
3.75 0.875 0
3.625 1 0
3.75 1 0
3.75 0.75 0
3.875 0.75 0
3.75 0.875 0
3.875 0.875 0
3.875 0.75 0
4 0.75 0
3.875 0.875 0
4 0.875 0
3.75 0.875 0
3.875 0.875 0
3.75 1 0
3.875 1 0
3.875 0.875 0
4 0.875 0
3.875 1 0
4 1 0
2 0 0
2.125 0 0
2 0.125 0
2.125 0.125 0
2.125 0 0
2.25 0 0
2.125 0.125 0
2.25 0.125 0
2 0.125 0
2.125 0.125 0
2 0.25 0
2.125 0.25 0
2.125 0.125 0
2.25 0.125 0
2.125 0.25 0
2.25 0.25 0
2.25 0 0
2.375 0 0
2.25 0.125 0
2.375 0.125 0
2.375 0 0
2.5 0 0
2.375 0.125 0
2.5 0.125 0
2.25 0.125 0
2.375 0.125 0
2.25 0.25 0
2.375 0.25 0
2.375 0.125 0
2.5 0.125 0
2.375 0.25 0
2.5 0.25 0
2 0.25 0
2.125 0.25 0
2 0.375 0
2.125 0.375 0
2.125 0.25 0
2.25 0.25 0
2.125 0.375 0
2.25 0.375 0
2 0.375 0
2.125 0.375 0
2 0.5 0
2.125 0.5 0
2.125 0.375 0
2.25 0.375 0
2.125 0.5 0
2.25 0.5 0
2.25 0.25 0
2.375 0.25 0
2.25 0.375 0
2.375 0.375 0
2.375 0.25 0
[...]
POINT_DATA 1536
VECTORS displacements double
38.6371 -45.2679 0
39.373 -40.4924 0
34.0552 -45.4876 0
34.6117 -40.6998 0
39.373 -40.4924 0
40.0863 -35.5334 0
34.6117 -40.6998 0
35.1354 -35.7364 0
34.0552 -45.4876 0
34.6117 -40.6998 0
29.9813 -45.6431 0
30.3441 -40.842 0
34.6117 -40.6998 0
35.1354 -35.7364 0
30.3441 -40.842 0
30.6949 -35.8632 0
40.0863 -35.5334 0
40.7645 -30.3979 0
35.1354 -35.7364 0
35.6457 -30.5841 0
40.7645 -30.3979 0
41.4405 -25.0874 0
35.6457 -30.5841 0
36.1167 -25.2787 0
35.1354 -35.7364 0
35.6457 -30.5841 0
30.6949 -35.8632 0
31.0115 -30.7034 0
35.6457 -30.5841 0
36.1167 -25.2787 0
31.0115 -30.7034 0
31.3017 -25.3658 0
29.9813 -45.6431 0
30.3441 -40.842 0
26.0741 -45.7172 0
26.2646 -40.9187 0
30.3441 -40.842 0
30.6949 -35.8632 0
26.2646 -40.9187 0
26.414 -35.9173 0
26.0741 -45.7172 0
26.2646 -40.9187 0
22.2434 -45.7254 0
22.2426 -40.9037 0
26.2646 -40.9187 0
26.414 -35.9173 0
22.2426 -40.9037 0
22.2356 -35.9083 0
30.6949 -35.8632 0
31.0115 -30.7034 0
26.414 -35.9173 0
26.5582 -30.737 0
31.0115 -30.7034 0
31.3017 -25.3658 0
26.5582 -30.737 0
26.6635 -25.3819 0
26.414 -35.9173 0
26.5582 -30.737 0
22.2356 -35.9083 0
22.177 -30.702 0
26.5582 -30.737 0
26.6635 -25.3819 0
22.177 -30.702 0
22.1322 -25.3302 0
41.4405 -25.0874 0
42.0949 -19.6027 0
36.1167 -25.2787 0
36.5778 -19.7617 0
42.0949 -19.6027 0
42.8351 -13.863 0
36.5778 -19.7617 0
36.9398 -14.077 0
36.1167 -25.2787 0
36.5778 -19.7617 0
31.3017 -25.3658 0
31.5503 -19.8386 0
36.5778 -19.7617 0
36.9398 -14.077 0
31.5503 -19.8386 0
31.7288 -14.0857 0
42.8351 -13.863 0
43.6577 -7.84032 0
36.9398 -14.077 0
37.1238 -7.75879 0
43.6577 -7.84032 0
44.0927 0 0
37.1238 -7.75879 0
37.3183 -1.41288 0
36.9398 -14.077 0
37.1238 -7.75879 0
31.7288 -14.0857 0
31.7324 -8.04057 0
37.1238 -7.75879 0
37.3183 -1.41288 0
31.7324 -8.04057 0
31.8711 -2.35818 0
31.3017 -25.3658 0
31.5503 -19.8386 0
26.6635 -25.3819 0
26.7395 -19.8487 0
31.5503 -19.8386 0
31.7288 -14.0857 0
26.7395 -19.8487 0
26.6925 -14.1568 0
26.6635 -25.3819 0
26.7395 -19.8487 0
22.1322 -25.3302 0
22.0195 -19.8723 0
26.7395 -19.8487 0
26.6925 -14.1568 0
22.0195 -19.8723 0
21.8974 -14.3416 0
31.7288 -14.0857 0
31.7324 -8.04057 0
26.6925 -14.1568 0
26.6907 -8.4811 0
31.7324 -8.04057 0
31.8711 -2.35818 0
26.6907 -8.4811 0
26.7687 -2.97112 0
26.6925 -14.1568 0
26.6907 -8.4811 0
21.8974 -14.3416 0
21.8468 -8.82172 0
26.6907 -8.4811 0
26.7687 -2.97112 0
21.8468 -8.82172 0
21.9195 -3.55454 0
22.2434 -45.7254 0
22.2426 -40.9037 0
18.4125 -45.6514 0
18.2202 -40.8352 0
22.2426 -40.9037 0
22.2356 -35.9083 0
18.2202 -40.8352 0
18.0185 -35.8023 0
18.4125 -45.6514 0
18.2202 -40.8352 0
14.4827 -45.5016 0
14.1108 -40.6865 0
18.2202 -40.8352 0
18.0185 -35.8023 0
14.1108 -40.6865 0
13.733 -35.6884 0
22.2356 -35.9083 0
22.177 -30.702 0
18.0185 -35.8023 0
17.8281 -30.6173 0
22.177 -30.702 0
22.1322 -25.3302 0
17.8281 -30.6173 0
17.5962 -25.3116 0
18.0185 -35.8023 0
17.8281 -30.6173 0
13.733 -35.6884 0
13.3428 -30.5407 0
17.8281 -30.6173 0
17.5962 -25.3116 0
13.3428 -30.5407 0
12.9954 -25.2804 0
14.4827 -45.5016 0
14.1108 -40.6865 0
10.3367 -45.3108 0
9.75811 -40.5133 0
14.1108 -40.6865 0
13.733 -35.6884 0
9.75811 -40.5133 0
9.21115 -35.5556 0
10.3367 -45.3108 0
9.75811 -40.5133 0
5.815 -45.0906 0
5.14864 -40.3087 0
9.75811 -40.5133 0
9.21115 -35.5556 0
5.14864 -40.3087 0
4.59015 -35.423 0
13.733 -35.6884 0
13.3428 -30.5407 0
9.21115 -35.5556 0
8.75914 -30.4434 0
13.3428 -30.5407 0
12.9954 -25.2804 0
8.75914 -30.4434 0
8.41011 -25.2672 0
9.21115 -35.5556 0
8.75914 -30.4434 0
4.59015 -35.423 0
4.05843 -30.3653 0
8.75914 -30.4434 0
8.41011 -25.2672 0
4.05843 -30.3653 0
3.52321 -25.1594 0
22.1322 -25.3302 0
22.0195 -19.8723 0
17.5962 -25.3116 0
17.3615 -19.9218 0
22.0195 -19.8723 0
21.8974 -14.3416 0
17.3615 -19.9218 0
17.2168 -14.5057 0
17.5962 -25.3116 0
17.3615 -19.9218 0
12.9954 -25.2804 0
12.7621 -19.9754 0
17.3615 -19.9218 0
17.2168 -14.5057 0
12.7621 -19.9754 0
12.5784 -14.6204 0
21.8974 -14.3416 0
21.8468 -8.82172 0
17.2168 -14.5057 0
17.152 -9.11359 0
21.8468 -8.82172 0
21.9195 -3.55454 0
17.152 -9.11359 0
17.218 -4.038 0
17.2168 -14.5057 0
17.152 -9.11359 0
12.5784 -14.6204 0
12.5008 -9.32969 0
17.152 -9.11359 0
17.218 -4.038 0
12.5008 -9.32969 0
12.5265 -4.33193 0
12.9954 -25.2804 0
12.7621 -19.9754 0
8.41011 -25.2672 0
8.0864 -19.973 0
12.7621 -19.9754 0
12.5784 -14.6204 0
8.0864 -19.973 0
7.85154 -14.6528 0
8.41011 -25.2672 0
8.0864 -19.973 0
3.52321 -25.1594 0
3.10239 -19.8897 0
8.0864 -19.973 0
7.85154 -14.6528 0
3.10239 -19.8897 0
2.84372 -14.6176 0
12.5784 -14.6204 0
12.5008 -9.32969 0
7.85154 -14.6528 0
7.73598 -9.43455 0
12.5008 -9.32969 0
12.5265 -4.33193 0
7.73598 -9.43455 0
7.71632 -4.42729 0
7.85154 -14.6528 0
7.73598 -9.43455 0
2.84372 -14.6176 0
2.757 -9.45153 0
7.73598 -9.43455 0
7.71632 -4.42729 0
2.757 -9.45153 0
2.75122 -4.4336 0
31.5395 -75.9074 0
32.5543 -72.9096 0
28.783 -76.2039 0
29.5203 -73.1955 0
32.5543 -72.9096 0
33.5261 -69.6458 0
29.5203 -73.1955 0
30.2374 -69.9206 0
28.783 -76.2039 0
29.5203 -73.1955 0
26.4559 -76.3995 0
26.9134 -73.3847 0
29.5203 -73.1955 0
30.2374 -69.9206 0
26.9134 -73.3847 0
27.3745 -70.1017 0
33.5261 -69.6458 0
34.4606 -66.1369 0
30.2374 -69.9206 0
30.9311 -66.4014 0
34.4606 -66.1369 0
35.3627 -62.3945 0
30.9311 -66.4014 0
31.5997 -62.6511 0
30.2374 -69.9206 0
30.9311 -66.4014 0
27.3745 -70.1017 0
27.8368 -66.5725 0
30.9311 -66.4014 0
31.5997 -62.6511 0
27.8368 -66.5725 0
28.2939 -62.815 0
26.4559 -76.3995 0
26.9134 -73.3847 0
24.3531 -76.4923 0
24.5328 -73.4729 0
26.9134 -73.3847 0
27.3745 -70.1017 0
24.5328 -73.4729 0
24.7314 -70.1872 0
24.3531 -76.4923 0
24.5328 -73.4729 0
22.3164 -76.4828 0
22.2339 -73.4604 0
24.5328 -73.4729 0
24.7314 -70.1872 0
22.2339 -73.4604 0
22.1842 -70.1778 0
27.3745 -70.1017 0
27.8368 -66.5725 0
24.7314 -70.1872 0
24.9485 -66.656 0
27.8368 -66.5725 0
28.2939 -62.815 0
24.9485 -66.656 0
25.1787 -62.8964 0
24.7314 -70.1872 0
24.9485 -66.656 0
22.1842 -70.1778 0
22.1629 -66.6525 0
24.9485 -66.656 0
25.1787 -62.8964 0
22.1629 -66.6525 0
22.1629 -62.8967 0
35.3627 -62.3945 0
36.2305 -58.426 0
31.5997 -62.6511 0
32.2482 -58.6736 0
36.2305 -58.426 0
37.0641 -54.2433 0
32.2482 -58.6736 0
32.8758 -54.481 0
31.5997 -62.6511 0
32.2482 -58.6736 0
28.2939 -62.815 0
28.7392 -58.84 0
32.2482 -58.6736 0
32.8758 -54.481 0
28.7392 -58.84 0
29.1708 -54.6461 0
37.0641 -54.2433 0
37.8667 -49.8557 0
32.8758 -54.481 0
33.4775 -50.0845 0
37.8667 -49.8557 0
38.6371 -45.2679 0
33.4775 -50.0845 0
34.0552 -45.4876 0
32.8758 -54.481 0
33.4775 -50.0845 0
29.1708 -54.6461 0
29.5865 -50.2426 0
33.4775 -50.0845 0
34.0552 -45.4876 0
29.5865 -50.2426 0
29.9813 -45.6431 0
28.2939 -62.815 0
28.7392 -58.84 0
25.1787 -62.8964 0
25.4149 -58.9196 0
28.7392 -58.84 0
29.1708 -54.6461 0
25.4149 -58.9196 0
25.6478 -54.7319 0
25.1787 -62.8964 0
25.4149 -58.9196 0
22.1629 -62.8967 0
22.1782 -58.9211 0
25.4149 -58.9196 0
25.6478 -54.7319 0
22.1782 -58.9211 0
22.2039 -54.7328 0
29.1708 -54.6461 0
29.5865 -50.2426 0
25.6478 -54.7319 0
25.8683 -50.3296 0
29.5865 -50.2426 0
29.9813 -45.6431 0
25.8683 -50.3296 0
26.0741 -45.7172 0
25.6478 -54.7319 0
25.8683 -50.3296 0
22.2039 -54.7328 0
22.2307 -50.3352 0
25.8683 -50.3296 0
26.0741 -45.7172 0
22.2307 -50.3352 0
22.2434 -45.7254 0
22.3164 -76.4828 0
22.2339 -73.4604 0
20.2453 -76.3774 0
19.9256 -73.3539 0
22.2339 -73.4604 0
22.1842 -70.1778 0
19.9256 -73.3539 0
19.6432 -70.083 0
20.2453 -76.3774 0
19.9256 -73.3539 0
18.0718 -76.186 0
17.5328 -73.1739 0
19.9256 -73.3539 0
19.6432 -70.083 0
17.5328 -73.1739 0
17.0245 -69.9191 0
22.1842 -70.1778 0
22.1629 -66.6525 0
19.6432 -70.083 0
19.392 -66.5708 0
22.1629 -66.6525 0
22.1629 -62.8967 0
19.392 -66.5708 0
19.1652 -62.8247 0
19.6432 -70.083 0
19.392 -66.5708 0
17.0245 -69.9191 0
16.5448 -66.4226 0
19.392 -66.5708 0
19.1652 -62.8247 0
16.5448 -66.4226 0
16.0908 -62.6876 0
18.0718 -76.186 0
17.5328 -73.1739 0
15.6832 -75.9442 0
14.9252 -72.9424 0
17.5328 -73.1739 0
17.0245 -69.9191 0
14.9252 -72.9424 0
14.1941 -69.7001 0
15.6832 -75.9442 0
14.9252 -72.9424 0
12.8704 -75.6482 0
11.8813 -72.6544 0
14.9252 -72.9424 0
14.1941 -69.7001 0
11.8813 -72.6544 0
10.9162 -69.4209 0
17.0245 -69.9191 0
16.5448 -66.4226 0
14.1941 -69.7001 0
13.4897 -66.2156 0
16.5448 -66.4226 0
16.0908 -62.6876 0
13.4897 -66.2156 0
12.8118 -62.4908 0
14.1941 -69.7001 0
13.4897 -66.2156 0
10.9162 -69.4209 0
9.97811 -65.9458 0
13.4897 -66.2156 0
12.8118 -62.4908 0
9.97811 -65.9458 0
9.06992 -62.2305 0
22.1629 -62.8967 0
22.1782 -58.9211 0
19.1652 -62.8247 0
18.9577 -58.8521 0
22.1782 -58.9211 0
22.2039 -54.7328 0
18.9577 -58.8521 0
18.7657 -54.6611 0
19.1652 -62.8247 0
18.9577 -58.8521 0
16.0908 -62.6876 0
15.66 -58.7202 0
18.9577 -58.8521 0
18.7657 -54.6611 0
15.66 -58.7202 0
15.2504 -54.5272 0
22.2039 -54.7328 0
22.2307 -50.3352 0
18.7657 -54.6611 0
18.5873 -50.2598 0
22.2307 -50.3352 0
22.2434 -45.7254 0
18.5873 -50.2598 0
18.4125 -45.6514 0
18.7657 -54.6611 0
18.5873 -50.2598 0
15.2504 -54.5272 0
14.8592 -50.1174 0
18.5873 -50.2598 0
18.4125 -45.6514 0
14.8592 -50.1174 0
14.4827 -45.5016 0
16.0908 -62.6876 0
15.66 -58.7202 0
12.8118 -62.4908 0
12.1597 -58.5297 0
15.66 -58.7202 0
15.2504 -54.5272 0
12.1597 -58.5297 0
11.5319 -54.3388 0
12.8118 -62.4908 0
12.1597 -58.5297 0
9.06992 -62.2305 0
8.19454 -58.2792 0
12.1597 -58.5297 0
11.5319 -54.3388 0
8.19454 -58.2792 0
7.35557 -54.0981 0
15.2504 -54.5272 0
14.8592 -50.1174 0
11.5319 -54.3388 0
10.9261 -49.9278 0
14.8592 -50.1174 0
14.4827 -45.5016 0
10.9261 -49.9278 0
10.3367 -45.3108 0
11.5319 -54.3388 0
10.9261 -49.9278 0
7.35557 -54.0981 0
6.55855 -49.6967 0
10.9261 -49.9278 0
10.3367 -45.3108 0
6.55855 -49.6967 0
5.815 -45.0906 0
22.0464 -87.8373 0
23.3237 -87.6366 0
22.0464 -88.2051 0
22.947 -88.0028 0
23.3237 -87.6366 0
24.5879 -87.0412 0
22.947 -88.0028 0
23.8444 -87.4024 0
22.0464 -88.2051 0
22.947 -88.0028 0
22.0464 -88.6505 0
22.7649 -88.4249 0
22.947 -88.0028 0
23.8444 -87.4024 0
22.7649 -88.4249 0
23.4324 -87.764 0
24.5879 -87.0412 0
25.8288 -86.0676 0
23.8444 -87.4024 0
24.7329 -86.421 0
25.8288 -86.0676 0
27.042 -84.7317 0
24.7329 -86.421 0
25.6011 -85.0751 0
23.8444 -87.4024 0
24.7329 -86.421 0
23.4324 -87.764 0
24.0247 -86.7252 0
24.7329 -86.421 0
25.6011 -85.0751 0
24.0247 -86.7252 0
24.5579 -85.3437 0
22.0464 -88.6505 0
22.7649 -88.4249 0
22.0464 -89.1699 0
22.5755 -88.9239 0
22.7649 -88.4249 0
23.4324 -87.764 0
22.5755 -88.9239 0
23.0414 -88.2101 0
22.0464 -89.1699 0
22.5755 -88.9239 0
22.0464 -89.6827 0
22.3699 -89.4166 0
22.5755 -88.9239 0
23.0414 -88.2101 0
22.3699 -89.4166 0
22.6148 -88.6354 0
23.4324 -87.764 0
24.0247 -86.7252 0
23.0414 -88.2101 0
23.4015 -87.0806 0
24.0247 -86.7252 0
24.5579 -85.3437 0
23.4015 -87.0806 0
23.6749 -85.6083 0
23.0414 -88.2101 0
23.4015 -87.0806 0
22.6148 -88.6354 0
22.7351 -87.4009 0
23.4015 -87.0806 0
23.6749 -85.6083 0
22.7351 -87.4009 0
22.7403 -85.8053 0
27.042 -84.7317 0
28.2255 -83.0391 0
25.6011 -85.0751 0
26.438 -83.3722 0
28.2255 -83.0391 0
29.3718 -80.9952 0
26.438 -83.3722 0
27.2476 -81.3155 0
25.6011 -85.0751 0
26.438 -83.3722 0
24.5579 -85.3437 0
25.0652 -83.615 0
26.438 -83.3722 0
27.2476 -81.3155 0
25.0652 -83.615 0
25.5429 -81.5415 0
29.3718 -80.9952 0
30.4784 -78.6123 0
27.2476 -81.3155 0
28.0264 -78.9215 0
30.4784 -78.6123 0
31.5395 -75.9074 0
28.0264 -78.9215 0
28.783 -76.2039 0
27.2476 -81.3155 0
28.0264 -78.9215 0
25.5429 -81.5415 0
25.9973 -79.1252 0
28.0264 -78.9215 0
28.783 -76.2039 0
25.9973 -79.1252 0
26.4559 -76.3995 0
24.5579 -85.3437 0
25.0652 -83.615 0
23.6749 -85.6083 0
23.8771 -83.7986 0
25.0652 -83.615 0
25.5429 -81.5415 0
23.8771 -83.7986 0
24.0338 -81.6668 0
23.6749 -85.6083 0
23.8771 -83.7986 0
22.7403 -85.8053 0
22.6661 -83.8933 0
23.8771 -83.7986 0
24.0338 -81.6668 0
22.6661 -83.8933 0
22.5494 -81.6996 0
25.5429 -81.5415 0
25.9973 -79.1252 0
24.0338 -81.6668 0
24.1904 -79.2256 0
25.9973 -79.1252 0
26.4559 -76.3995 0
24.1904 -79.2256 0
24.3531 -76.4923 0
24.0338 -81.6668 0
24.1904 -79.2256 0
22.5494 -81.6996 0
22.4257 -79.2317 0
24.1904 -79.2256 0
24.3531 -76.4923 0
22.4257 -79.2317 0
22.3164 -76.4828 0
22.0464 -89.6827 0
22.3699 -89.4166 0
22.0464 -90.1939 0
22.1385 -89.8895 0
22.3699 -89.4166 0
22.6148 -88.6354 0
22.1385 -89.8895 0
22.1299 -88.9995 0
22.0464 -90.1939 0
22.1385 -89.8895 0
22.0464 -90.6867 0
21.8269 -90.3297 0
22.1385 -89.8895 0
22.1299 -88.9995 0
21.8269 -90.3297 0
21.5036 -89.2024 0
22.6148 -88.6354 0
22.7351 -87.4009 0
22.1299 -88.9995 0
21.9653 -87.6078 0
22.7351 -87.4009 0
22.7403 -85.8053 0
21.9653 -87.6078 0
21.6982 -85.8863 0
22.1299 -88.9995 0
21.9653 -87.6078 0
21.5036 -89.2024 0
21.0389 -87.6551 0
21.9653 -87.6078 0
21.6982 -85.8863 0
21.0389 -87.6551 0
20.4719 -85.8334 0
22.0464 -90.6867 0
21.8269 -90.3297 0
22.0464 -91.168 0
21.4289 -90.5251 0
21.8269 -90.3297 0
21.5036 -89.2024 0
21.4289 -90.5251 0
20.658 -89.1558 0
22.0464 -91.168 0
21.4289 -90.5251 0
22.0464 -91.1507 0
20.5687 -90.3751 0
21.4289 -90.5251 0
20.658 -89.1558 0
20.5687 -90.3751 0
19.2877 -88.8302 0
21.5036 -89.2024 0
21.0389 -87.6551 0
20.658 -89.1558 0
19.8029 -87.5091 0
21.0389 -87.6551 0
20.4719 -85.8334 0
19.8029 -87.5091 0
18.9459 -85.6435 0
20.658 -89.1558 0
19.8029 -87.5091 0
19.2877 -88.8302 0
18.1365 -87.1881 0
19.8029 -87.5091 0
18.9459 -85.6435 0
18.1365 -87.1881 0
17.0357 -85.323 0
22.7403 -85.8053 0
22.6661 -83.8933 0
21.6982 -85.8863 0
21.3525 -83.8899 0
22.6661 -83.8933 0
22.5494 -81.6996 0
21.3525 -83.8899 0
20.9776 -81.6436 0
21.6982 -85.8863 0
21.3525 -83.8899 0
20.4719 -85.8334 0
19.8678 -83.779 0
21.3525 -83.8899 0
20.9776 -81.6436 0
19.8678 -83.779 0
19.2503 -81.4912 0
22.5494 -81.6996 0
22.4257 -79.2317 0
20.9776 -81.6436 0
20.601 -79.1427 0
22.4257 -79.2317 0
22.3164 -76.4828 0
20.601 -79.1427 0
20.2453 -76.3774 0
20.9776 -81.6436 0
20.601 -79.1427 0
19.2503 -81.4912 0
18.6447 -78.9583 0
20.601 -79.1427 0
20.2453 -76.3774 0
18.6447 -78.9583 0
18.0718 -76.186 0
20.4719 -85.8334 0
19.8678 -83.779 0
18.9459 -85.6435 0
18.1013 -83.556 0
19.8678 -83.779 0
19.2503 -81.4912 0
18.1013 -83.556 0
17.2742 -81.2462 0
18.9459 -85.6435 0
18.1013 -83.556 0
17.0357 -85.323 0
15.9629 -83.2405 0
18.1013 -83.556 0
17.2742 -81.2462 0
15.9629 -83.2405 0
14.9118 -80.9364 0
19.2503 -81.4912 0
18.6447 -78.9583 0
17.2742 -81.2462 0
16.4671 -78.7104 0
18.6447 -78.9583 0
18.0718 -76.186 0
16.4671 -78.7104 0
15.6832 -75.9442 0
17.2742 -81.2462 0
16.4671 -78.7104 0
14.9118 -80.9364 0
13.8809 -78.4071 0
16.4671 -78.7104 0
15.6832 -75.9442 0
13.8809 -78.4071 0
12.8704 -75.6482 0
12.5532 -75.9074 0
13.6144 -78.6123 0
15.3097 -76.2039 0
16.0664 -78.9215 0
13.6144 -78.6123 0
14.7209 -80.9952 0
16.0664 -78.9215 0
16.8451 -81.3155 0
15.3097 -76.2039 0
16.0664 -78.9215 0
17.6368 -76.3995 0
18.0954 -79.1252 0
16.0664 -78.9215 0
16.8451 -81.3155 0
18.0954 -79.1252 0
18.5498 -81.5415 0
14.7209 -80.9952 0
15.8672 -83.0391 0
16.8451 -81.3155 0
17.6547 -83.3722 0
15.8672 -83.0391 0
17.0508 -84.7317 0
17.6547 -83.3722 0
18.4916 -85.0751 0
16.8451 -81.3155 0
17.6547 -83.3722 0
18.5498 -81.5415 0
19.0275 -83.615 0
17.6547 -83.3722 0
18.4916 -85.0751 0
19.0275 -83.615 0
19.5349 -85.3437 0
17.6368 -76.3995 0
18.0954 -79.1252 0
19.7397 -76.4923 0
19.9023 -79.2256 0
18.0954 -79.1252 0
18.5498 -81.5415 0
19.9023 -79.2256 0
20.0589 -81.6668 0
19.7397 -76.4923 0
19.9023 -79.2256 0
21.7763 -76.4828 0
21.667 -79.2317 0
19.9023 -79.2256 0
20.0589 -81.6668 0
21.667 -79.2317 0
21.5433 -81.6996 0
18.5498 -81.5415 0
19.0275 -83.615 0
20.0589 -81.6668 0
20.2156 -83.7986 0
19.0275 -83.615 0
19.5349 -85.3437 0
20.2156 -83.7986 0
20.4179 -85.6083 0
20.0589 -81.6668 0
20.2156 -83.7986 0
21.5433 -81.6996 0
21.4266 -83.8933 0
20.2156 -83.7986 0
20.4179 -85.6083 0
21.4266 -83.8933 0
21.3524 -85.8053 0
17.0508 -84.7317 0
18.2639 -86.0676 0
18.4916 -85.0751 0
19.3598 -86.421 0
18.2639 -86.0676 0
19.5048 -87.0412 0
19.3598 -86.421 0
20.2483 -87.4024 0
18.4916 -85.0751 0
19.3598 -86.421 0
19.5349 -85.3437 0
20.068 -86.7252 0
19.3598 -86.421 0
20.2483 -87.4024 0
20.068 -86.7252 0
20.6603 -87.764 0
19.5048 -87.0412 0
20.769 -87.6366 0
20.2483 -87.4024 0
21.1457 -88.0028 0
20.769 -87.6366 0
22.0464 -87.8373 0
21.1457 -88.0028 0
22.0464 -88.2051 0
20.2483 -87.4024 0
21.1457 -88.0028 0
20.6603 -87.764 0
21.3279 -88.4249 0
21.1457 -88.0028 0
22.0464 -88.2051 0
21.3279 -88.4249 0
22.0464 -88.6505 0
19.5349 -85.3437 0
20.068 -86.7252 0
20.4179 -85.6083 0
20.6913 -87.0806 0
20.068 -86.7252 0
20.6603 -87.764 0
20.6913 -87.0806 0
21.0514 -88.2101 0
20.4179 -85.6083 0
20.6913 -87.0806 0
21.3524 -85.8053 0
21.3577 -87.4009 0
20.6913 -87.0806 0
21.0514 -88.2101 0
21.3577 -87.4009 0
21.4779 -88.6354 0
20.6603 -87.764 0
21.3279 -88.4249 0
21.0514 -88.2101 0
21.5172 -88.9239 0
21.3279 -88.4249 0
22.0464 -88.6505 0
21.5172 -88.9239 0
22.0464 -89.1699 0
21.0514 -88.2101 0
21.5172 -88.9239 0
21.4779 -88.6354 0
21.7228 -89.4166 0
21.5172 -88.9239 0
22.0464 -89.1699 0
21.7228 -89.4166 0
22.0464 -89.6827 0
21.7763 -76.4828 0
21.667 -79.2317 0
23.8475 -76.3774 0
23.4918 -79.1427 0
21.667 -79.2317 0
21.5433 -81.6996 0
23.4918 -79.1427 0
23.1151 -81.6436 0
23.8475 -76.3774 0
23.4918 -79.1427 0
26.0209 -76.186 0
25.448 -78.9583 0
23.4918 -79.1427 0
23.1151 -81.6436 0
25.448 -78.9583 0
24.8425 -81.4912 0
21.5433 -81.6996 0
21.4266 -83.8933 0
23.1151 -81.6436 0
22.7402 -83.8899 0
21.4266 -83.8933 0
21.3524 -85.8053 0
22.7402 -83.8899 0
22.3945 -85.8863 0
23.1151 -81.6436 0
22.7402 -83.8899 0
24.8425 -81.4912 0
24.225 -83.779 0
22.7402 -83.8899 0
22.3945 -85.8863 0
24.225 -83.779 0
23.6209 -85.8334 0
26.0209 -76.186 0
25.448 -78.9583 0
28.4095 -75.9442 0
27.6256 -78.7104 0
25.448 -78.9583 0
24.8425 -81.4912 0
27.6256 -78.7104 0
26.8186 -81.2462 0
28.4095 -75.9442 0
27.6256 -78.7104 0
31.2224 -75.6482 0
30.2118 -78.4071 0
27.6256 -78.7104 0
26.8186 -81.2462 0
30.2118 -78.4071 0
29.1809 -80.9364 0
24.8425 -81.4912 0
24.225 -83.779 0
26.8186 -81.2462 0
25.9914 -83.556 0
24.225 -83.779 0
23.6209 -85.8334 0
25.9914 -83.556 0
25.1469 -85.6435 0
26.8186 -81.2462 0
25.9914 -83.556 0
29.1809 -80.9364 0
28.1298 -83.2405 0
25.9914 -83.556 0
25.1469 -85.6435 0
28.1298 -83.2405 0
27.057 -85.323 0
21.3524 -85.8053 0
21.3577 -87.4009 0
22.3945 -85.8863 0
22.1274 -87.6078 0
21.3577 -87.4009 0
21.4779 -88.6354 0
22.1274 -87.6078 0
21.9628 -88.9995 0
22.3945 -85.8863 0
22.1274 -87.6078 0
23.6209 -85.8334 0
23.0538 -87.6551 0
22.1274 -87.6078 0
21.9628 -88.9995 0
23.0538 -87.6551 0
22.5892 -89.2024 0
21.4779 -88.6354 0
21.7228 -89.4166 0
21.9628 -88.9995 0
21.9543 -89.8895 0
21.7228 -89.4166 0
22.0464 -89.6827 0
21.9543 -89.8895 0
22.0464 -90.1939 0
21.9628 -88.9995 0
21.9543 -89.8895 0
22.5892 -89.2024 0
22.2658 -90.3297 0
21.9543 -89.8895 0
22.0464 -90.1939 0
22.2658 -90.3297 0
22.0464 -90.6867 0
23.6209 -85.8334 0
23.0538 -87.6551 0
25.1469 -85.6435 0
24.2899 -87.5091 0
23.0538 -87.6551 0
22.5892 -89.2024 0
24.2899 -87.5091 0
23.4347 -89.1558 0
25.1469 -85.6435 0
24.2899 -87.5091 0
27.057 -85.323 0
25.9562 -87.1881 0
24.2899 -87.5091 0
23.4347 -89.1558 0
25.9562 -87.1881 0
24.805 -88.8302 0
22.5892 -89.2024 0
22.2658 -90.3297 0
23.4347 -89.1558 0
22.6638 -90.5251 0
22.2658 -90.3297 0
22.0464 -90.6867 0
22.6638 -90.5251 0
22.0464 -91.168 0
23.4347 -89.1558 0
22.6638 -90.5251 0
24.805 -88.8302 0
23.524 -90.3751 0
22.6638 -90.5251 0
22.0464 -91.168 0
23.524 -90.3751 0
22.0464 -91.1507 0
5.45565 -45.2679 0
6.22604 -49.8557 0
10.0375 -45.4876 0
10.6152 -50.0845 0
6.22604 -49.8557 0
7.02866 -54.2433 0
10.6152 -50.0845 0
11.2169 -54.481 0
10.0375 -45.4876 0
10.6152 -50.0845 0
14.1114 -45.6431 0
14.5062 -50.2426 0
10.6152 -50.0845 0
11.2169 -54.481 0
14.5062 -50.2426 0
14.922 -54.6461 0
7.02866 -54.2433 0
7.86222 -58.426 0
11.2169 -54.481 0
11.8445 -58.6736 0
7.86222 -58.426 0
8.73005 -62.3945 0
11.8445 -58.6736 0
12.4931 -62.6511 0
11.2169 -54.481 0
11.8445 -58.6736 0
14.922 -54.6461 0
15.3535 -58.84 0
11.8445 -58.6736 0
12.4931 -62.6511 0
15.3535 -58.84 0
15.7988 -62.815 0
14.1114 -45.6431 0
14.5062 -50.2426 0
18.0187 -45.7172 0
18.2244 -50.3296 0
14.5062 -50.2426 0
14.922 -54.6461 0