# vtk DataFile Version 3.0
#This file was generated by the deal.II library on 2020/9/2 at 8:39:54
ASCII
DATASET UNSTRUCTURED_GRID

POINTS 1536 double
5 0 0
5.125 0 0
5 0.125 0
5.125 0.125 0
5.125 0 0
5.25 0 0
5.125 0.125 0
5.25 0.125 0
5 0.125 0
5.125 0.125 0
5 0.25 0
5.125 0.25 0
5.125 0.125 0
5.25 0.125 0
5.125 0.25 0
5.25 0.25 0
5.25 0 0
5.375 0 0
5.25 0.125 0
5.375 0.125 0
5.375 0 0
5.5 0 0
5.375 0.125 0
5.5 0.125 0
5.25 0.125 0
5.375 0.125 0
5.25 0.25 0
5.375 0.25 0
5.375 0.125 0
5.5 0.125 0
5.375 0.25 0
5.5 0.25 0
5 0.25 0
5.125 0.25 0
5 0.375 0
5.125 0.375 0
5.125 0.25 0
5.25 0.25 0
5.125 0.375 0
5.25 0.375 0
5 0.375 0
5.125 0.375 0
5 0.5 0
5.125 0.5 0
5.125 0.375 0
5.25 0.375 0
5.125 0.5 0
5.25 0.5 0
5.25 0.25 0
5.375 0.25 0
5.25 0.375 0
5.375 0.375 0
5.375 0.25 0
5.5 0.25 0
5.375 0.375 0
5.5 0.375 0
5.25 0.375 0
5.375 0.375 0
5.25 0.5 0
5.375 0.5 0
5.375 0.375 0
5.5 0.375 0
5.375 0.5 0
5.5 0.5 0
5.5 0 0
5.625 0 0
5.5 0.125 0
5.625 0.125 0
5.625 0 0
5.75 0 0
5.625 0.125 0
5.75 0.125 0
5.5 0.125 0
5.625 0.125 0
5.5 0.25 0
5.625 0.25 0
5.625 0.125 0
5.75 0.125 0
5.625 0.25 0
5.75 0.25 0
5.75 0 0
5.875 0 0
5.75 0.125 0
5.875 0.125 0
5.875 0 0
6 0 0
5.875 0.125 0
6 0.125 0
5.75 0.125 0
5.875 0.125 0
5.75 0.25 0
5.875 0.25 0
5.875 0.125 0
6 0.125 0
5.875 0.25 0
6 0.25 0
5.5 0.25 0
5.625 0.25 0
5.5 0.375 0
5.625 0.375 0
5.625 0.25 0
5.75 0.25 0
5.625 0.375 0
5.75 0.375 0
5.5 0.375 0
5.625 0.375 0
5.5 0.5 0
5.625 0.5 0
5.625 0.375 0
5.75 0.375 0
5.625 0.5 0
5.75 0.5 0
5.75 0.25 0
5.875 0.25 0
5.75 0.375 0
5.875 0.375 0
5.875 0.25 0
6 0.25 0
5.875 0.375 0
6 0.375 0
5.75 0.375 0
5.875 0.375 0
5.75 0.5 0
5.875 0.5 0
5.875 0.375 0
6 0.375 0
5.875 0.5 0
6 0.5 0
5 0.5 0
5.125 0.5 0
5 0.625 0
5.125 0.625 0
5.125 0.5 0
5.25 0.5 0
5.125 0.625 0
5.25 0.625 0
5 0.625 0
5.125 0.625 0
5 0.75 0
5.125 0.75 0
5.125 0.625 0
5.25 0.625 0
5.125 0.75 0
5.25 0.75 0
5.25 0.5 0
5.375 0.5 0
5.25 0.625 0
5.375 0.625 0
5.375 0.5 0
5.5 0.5 0
5.375 0.625 0
5.5 0.625 0
5.25 0.625 0
5.375 0.625 0
5.25 0.75 0
5.375 0.75 0
5.375 0.625 0
5.5 0.625 0
5.375 0.75 0
5.5 0.75 0
5 0.75 0
5.125 0.75 0
5 0.875 0
5.125 0.875 0
5.125 0.75 0
5.25 0.75 0
5.125 0.875 0
5.25 0.875 0
5 0.875 0
5.125 0.875 0
5 1 0
5.125 1 0
5.125 0.875 0
5.25 0.875 0
5.125 1 0
5.25 1 0
5.25 0.75 0
5.375 0.75 0
5.25 0.875 0
5.375 0.875 0
5.375 0.75 0
5.5 0.75 0
5.375 0.875 0
5.5 0.875 0
5.25 0.875 0
5.375 0.875 0
5.25 1 0
5.375 1 0
5.375 0.875 0
5.5 0.875 0
5.375 1 0
5.5 1 0
5.5 0.5 0
5.625 0.5 0
5.5 0.625 0
5.625 0.625 0
5.625 0.5 0
5.75 0.5 0
5.625 0.625 0
5.75 0.625 0
5.5 0.625 0
5.625 0.625 0
5.5 0.75 0
5.625 0.75 0
5.625 0.625 0
5.75 0.625 0
5.625 0.75 0
5.75 0.75 0
5.75 0.5 0
5.875 0.5 0
5.75 0.625 0
5.875 0.625 0
5.875 0.5 0
6 0.5 0
5.875 0.625 0
6 0.625 0
5.75 0.625 0
5.875 0.625 0
5.75 0.75 0
5.875 0.75 0
5.875 0.625 0
6 0.625 0
5.875 0.75 0
6 0.75 0
5.5 0.75 0
5.625 0.75 0
5.5 0.875 0
5.625 0.875 0
5.625 0.75 0
5.75 0.75 0
5.625 0.875 0
5.75 0.875 0
5.5 0.875 0
5.625 0.875 0
5.5 1 0
5.625 1 0
5.625 0.875 0
5.75 0.875 0
5.625 1 0
5.75 1 0
5.75 0.75 0
5.875 0.75 0
5.75 0.875 0
5.875 0.875 0
5.875 0.75 0
6 0.75 0
5.875 0.875 0
6 0.875 0
5.75 0.875 0
5.875 0.875 0
5.75 1 0
5.875 1 0
5.875 0.875 0
6 0.875 0
5.875 1 0
6 1 0
4 0 0
4.125 0 0
4 0.125 0
4.125 0.125 0
4.125 0 0
4.25 0 0
4.125 0.125 0
4.25 0.125 0
4 0.125 0
4.125 0.125 0
4 0.25 0
4.125 0.25 0
4.125 0.125 0
4.25 0.125 0
4.125 0.25 0
4.25 0.25 0
4.25 0 0
4.375 0 0
4.25 0.125 0
4.375 0.125 0
4.375 0 0
4.5 0 0
4.375 0.125 0
4.5 0.125 0
4.25 0.125 0
4.375 0.125 0
4.25 0.25 0
4.375 0.25 0
4.375 0.125 0
4.5 0.125 0
4.375 0.25 0
4.5 0.25 0
4 0.25 0
4.125 0.25 0
4 0.375 0
4.125 0.375 0
4.125 0.25 0
4.25 0.25 0
4.125 0.375 0
4.25 0.375 0
4 0.375 0
4.125 0.375 0
4 0.5 0
4.125 0.5 0
4.125 0.375 0
4.25 0.375 0
4.125 0.5 0
4.25 0.5 0
4.25 0.25 0
4.375 0.25 0
4.25 0.375 0
4.375 0.375 0
4.375 0.25 0
4.5 0.25 0
4.375 0.375 0
4.5 0.375 0
4.25 0.375 0
4.375 0.375 0
4.25 0.5 0
4.375 0.5 0
4.375 0.375 0
4.5 0.375 0
4.375 0.5 0
4.5 0.5 0
4.5 0 0
4.625 0 0
4.5 0.125 0
4.625 0.125 0
4.625 0 0
4.75 0 0
4.625 0.125 0
4.75 0.125 0
4.5 0.125 0
4.625 0.125 0
4.5 0.25 0
4.625 0.25 0
4.625 0.125 0
4.75 0.125 0
4.625 0.25 0
4.75 0.25 0
4.75 0 0
4.875 0 0
4.75 0.125 0
4.875 0.125 0
4.875 0 0
5 0 0
4.875 0.125 0
5 0.125 0
4.75 0.125 0
4.875 0.125 0
4.75 0.25 0
4.875 0.25 0
4.875 0.125 0
5 0.125 0
4.875 0.25 0
5 0.25 0
4.5 0.25 0
4.625 0.25 0
4.5 0.375 0
4.625 0.375 0
4.625 0.25 0
4.75 0.25 0
4.625 0.375 0
4.75 0.375 0
4.5 0.375 0
4.625 0.375 0
4.5 0.5 0
4.625 0.5 0
4.625 0.375 0
4.75 0.375 0
4.625 0.5 0
4.75 0.5 0
4.75 0.25 0
4.875 0.25 0
4.75 0.375 0
4.875 0.375 0
4.875 0.25 0
5 0.25 0
4.875 0.375 0
5 0.375 0
4.75 0.375 0
4.875 0.375 0
4.75 0.5 0
4.875 0.5 0
4.875 0.375 0
5 0.375 0
4.875 0.5 0
5 0.5 0
4 0.5 0
4.125 0.5 0
4 0.625 0
4.125 0.625 0
4.125 0.5 0
4.25 0.5 0
4.125 0.625 0
4.25 0.625 0
4 0.625 0
4.125 0.625 0
4 0.75 0
4.125 0.75 0
4.125 0.625 0
4.25 0.625 0
4.125 0.75 0
4.25 0.75 0
4.25 0.5 0
4.375 0.5 0
4.25 0.625 0
4.375 0.625 0
4.375 0.5 0
4.5 0.5 0
4.375 0.625 0
4.5 0.625 0
4.25 0.625 0
4.375 0.625 0
4.25 0.75 0
4.375 0.75 0
4.375 0.625 0
4.5 0.625 0
4.375 0.75 0
4.5 0.75 0
4 0.75 0
4.125 0.75 0
4 0.875 0
4.125 0.875 0
4.125 0.75 0
4.25 0.75 0
4.125 0.875 0
4.25 0.875 0
4 0.875 0
4.125 0.875 0
4 1 0
4.125 1 0
4.125 0.875 0
4.25 0.875 0
4.125 1 0
4.25 1 0
4.25 0.75 0
4.375 0.75 0
4.25 0.875 0
4.375 0.875 0
4.375 0.75 0
4.5 0.75 0
4.375 0.875 0
4.5 0.875 0
4.25 0.875 0
4.375 0.875 0
4.25 1 0
4.375 1 0
4.375 0.875 0
4.5 0.875 0
4.375 1 0
4.5 1 0
4.5 0.5 0
4.625 0.5 0
4.5 0.625 0
4.625 0.625 0
4.625 0.5 0
4.75 0.5 0
4.625 0.625 0
4.75 0.625 0
4.5 0.625 0
4.625 0.625 0
4.5 0.75 0
4.625 0.75 0
4.625 0.625 0
4.75 0.625 0
4.625 0.75 0
4.75 0.75 0
4.75 0.5 0
4.875 0.5 0
4.75 0.625 0
4.875 0.625 0
4.875 0.5 0
5 0.5 0
4.875 0.625 0
5 0.625 0
4.75 0.625 0
4.875 0.625 0
4.75 0.75 0
4.875 0.75 0
4.875 0.625 0
5 0.625 0
4.875 0.75 0
5 0.75 0
4.5 0.75 0
4.625 0.75 0
4.5 0.875 0
4.625 0.875 0
4.625 0.75 0
4.75 0.75 0
4.625 0.875 0
4.75 0.875 0
4.5 0.875 0
4.625 0.875 0
4.5 1 0
4.625 1 0
4.625 0.875 0
4.75 0.875 0
4.625 1 0
4.75 1 0
4.75 0.75 0
4.875 0.75 0
4.75 0.875 0
4.875 0.875 0
4.875 0.75 0
5 0.75 0
4.875 0.875 0
5 0.875 0
4.75 0.875 0
4.875 0.875 0
4.75 1 0
4.875 1 0
4.875 0.875 0
5 0.875 0
4.875 1 0
5 1 0
3 0 0
3.125 0 0
3 0.125 0
3.125 0.125 0
3.125 0 0
3.25 0 0
3.125 0.125 0
3.25 0.125 0
3 0.125 0
3.125 0.125 0
3 0.25 0
3.125 0.25 0
3.125 0.125 0
3.25 0.125 0
3.125 0.25 0
3.25 0.25 0
3.25 0 0
3.375 0 0
3.25 0.125 0
3.375 0.125 0
3.375 0 0
3.5 0 0
3.375 0.125 0
3.5 0.125 0
3.25 0.125 0
3.375 0.125 0
3.25 0.25 0
3.375 0.25 0
3.375 0.125 0
3.5 0.125 0
3.375 0.25 0
3.5 0.25 0
3 0.25 0
3.125 0.25 0
3 0.375 0
3.125 0.375 0
3.125 0.25 0
3.25 0.25 0
3.125 0.375 0
3.25 0.375 0
3 0.375 0
3.125 0.375 0
3 0.5 0
3.125 0.5 0
3.125 0.375 0
3.25 0.375 0
3.125 0.5 0
3.25 0.5 0
3.25 0.25 0
3.375 0.25 0
3.25 0.375 0
3.375 0.375 0
3.375 0.25 0
3.5 0.25 0
3.375 0.375 0
3.5 0.375 0
3.25 0.375 0
3.375 0.375 0
3.25 0.5 0
3.375 0.5 0
3.375 0.375 0
3.5 0.375 0
3.375 0.5 0
3.5 0.5 0
3.5 0 0
3.625 0 0
3.5 0.125 0
3.625 0.125 0
3.625 0 0
3.75 0 0
3.625 0.125 0
3.75 0.125 0
3.5 0.125 0
3.625 0.125 0
3.5 0.25 0
3.625 0.25 0
3.625 0.125 0
3.75 0.125 0
3.625 0.25 0
3.75 0.25 0
3.75 0 0
3.875 0 0
3.75 0.125 0
3.875 0.125 0
3.875 0 0
4 0 0
3.875 0.125 0
4 0.125 0
3.75 0.125 0
3.875 0.125 0
3.75 0.25 0
3.875 0.25 0
3.875 0.125 0
4 0.125 0
3.875 0.25 0
4 0.25 0
3.5 0.25 0
3.625 0.25 0
3.5 0.375 0
3.625 0.375 0
3.625 0.25 0
3.75 0.25 0
3.625 0.375 0
3.75 0.375 0
3.5 0.375 0
3.625 0.375 0
3.5 0.5 0
3.625 0.5 0
3.625 0.375 0
3.75 0.375 0
3.625 0.5 0
3.75 0.5 0
3.75 0.25 0
3.875 0.25 0
3.75 0.375 0
3.875 0.375 0
3.875 0.25 0
4 0.25 0
3.875 0.375 0
4 0.375 0
3.75 0.375 0
3.875 0.375 0
3.75 0.5 0
3.875 0.5 0
3.875 0.375 0
4 0.375 0
3.875 0.5 0
4 0.5 0
3 0.5 0
3.125 0.5 0
3 0.625 0
3.125 0.625 0
3.125 0.5 0
3.25 0.5 0
3.125 0.625 0
3.25 0.625 0
3 0.625 0
3.125 0.625 0
3 0.75 0
3.125 0.75 0
3.125 0.625 0
3.25 0.625 0
3.125 0.75 0
3.25 0.75 0
3.25 0.5 0
3.375 0.5 0
3.25 0.625 0
3.375 0.625 0
3.375 0.5 0
3.5 0.5 0
3.375 0.625 0
3.5 0.625 0
3.25 0.625 0
3.375 0.625 0
3.25 0.75 0
3.375 0.75 0
3.375 0.625 0
3.5 0.625 0
3.375 0.75 0
3.5 0.75 0
3 0.75 0
3.125 0.75 0
3 0.875 0
3.125 0.875 0
3.125 0.75 0
3.25 0.75 0
3.125 0.875 0
3.25 0.875 0
3 0.875 0
3.125 0.875 0
3 1 0
3.125 1 0
3.125 0.875 0
3.25 0.875 0
3.125 1 0
3.25 1 0
3.25 0.75 0
3.375 0.75 0
3.25 0.875 0
3.375 0.875 0
3.375 0.75 0
3.5 0.75 0
3.375 0.875 0
3.5 0.875 0
3.25 0.875 0
3.375 0.875 0
3.25 1 0
3.375 1 0
3.375 0.875 0
3.5 0.875 0
3.375 1 0
3.5 1 0
3.5 0.5 0
3.625 0.5 0
3.5 0.625 0
3.625 0.625 0
3.625 0.5 0
3.75 0.5 0
3.625 0.625 0
3.75 0.625 0
3.5 0.625 0
3.625 0.625 0
3.5 0.75 0
3.625 0.75 0
3.625 0.625 0
3.75 0.625 0
3.625 0.75 0
3.75 0.75 0
3.75 0.5 0
3.875 0.5 0
3.75 0.625 0
3.875 0.625 0
3.875 0.5 0
4 0.5 0
3.875 0.625 0
4 0.625 0
3.75 0.625 0
3.875 0.625 0
3.75 0.75 0
3.875 0.75 0
3.875 0.625 0
4 0.625 0
3.875 0.75 0
4 0.75 0
3.5 0.75 0
3.625 0.75 0
3.5 0.875 0
3.625 0.875 0
3.625 0.75 0
3.75 0.75 0
3.625 0.875 0
3.75 0.875 0
3.5 0.875 0
3.625 0.875 0
3.5 1 0
3.625 1 0
3.625 0.875 0
3.75 0.875 0
3.625 1 0
3.75 1 0
3.75 0.75 0
3.875 0.75 0
3.75 0.875 0
3.875 0.875 0
3.875 0.75 0
4 0.75 0
3.875 0.875 0
4 0.875 0
3.75 0.875 0
3.875 0.875 0
3.75 1 0
3.875 1 0
3.875 0.875 0
4 0.875 0
3.875 1 0
4 1 0
2 0 0
2.125 0 0
2 0.125 0
2.125 0.125 0
2.125 0 0
2.25 0 0
2.125 0.125 0
2.25 0.125 0
2 0.125 0
2.125 0.125 0
2 0.25 0
2.125 0.25 0
2.125 0.125 0
2.25 0.125 0
2.125 0.25 0
2.25 0.25 0
2.25 0 0
2.375 0 0
2.25 0.125 0
2.375 0.125 0
2.375 0 0
2.5 0 0
2.375 0.125 0
2.5 0.125 0
2.25 0.125 0
2.375 0.125 0
2.25 0.25 0
2.375 0.25 0
2.375 0.125 0
2.5 0.125 0
2.375 0.25 0
2.5 0.25 0
2 0.25 0
2.125 0.25 0
2 0.375 0
2.125 0.375 0
2.125 0.25 0
2.25 0.25 0
2.125 0.375 0
2.25 0.375 0
2 0.375 0
2.125 0.375 0
2 0.5 0
2.125 0.5 0
2.125 0.375 0
2.25 0.375 0
2.125 0.5 0
2.25 0.5 0
2.25 0.25 0
2.375 0.25 0
2.25 0.375 0
2.375 0.375 0
2.375 0.25 0
[...]
POINT_DATA 1536
VECTORS displacements double
35.8554 -41.315 0
36.5229 -36.9896 0
31.7131 -41.5136 0
32.2124 -37.177 0
36.5229 -36.9896 0
37.1572 -32.5009 0
32.2124 -37.177 0
32.6818 -32.6771 0
31.7131 -41.5136 0
32.2124 -37.177 0
27.8357 -41.6492 0
28.1662 -37.301 0
32.2124 -37.177 0
32.6818 -32.6771 0
28.1662 -37.301 0
28.4699 -32.7877 0
37.1572 -32.5009 0
37.7629 -27.8542 0
32.6818 -32.6771 0
33.1203 -28.0197 0
37.7629 -27.8542 0
38.35 -23.0483 0
33.1203 -28.0197 0
33.5254 -23.2049 0
32.6818 -32.6771 0
33.1203 -28.0197 0
28.4699 -32.7877 0
28.7411 -28.1146 0
33.1203 -28.0197 0
33.5254 -23.2049 0
28.7411 -28.1146 0
28.9699 -23.2794 0
27.8357 -41.6492 0
28.1662 -37.301 0
24.1199 -41.7189 0
24.2778 -37.359 0
28.1662 -37.301 0
28.4699 -32.7877 0
24.2778 -37.359 0
24.4148 -32.8313 0
24.1199 -41.7189 0
24.2778 -37.359 0
20.4764 -41.7244 0
20.4608 -37.355 0
24.2778 -37.359 0
24.4148 -32.8313 0
20.4608 -37.355 0
20.4327 -32.8162 0
28.4699 -32.7877 0
28.7411 -28.1146 0
24.4148 -32.8313 0
24.5232 -28.141 0
28.7411 -28.1146 0
28.9699 -23.2794 0
24.5232 -28.141 0
24.5918 -23.2881 0
24.4148 -32.8313 0
24.5232 -28.141 0
20.4327 -32.8162 0
20.3857 -28.1148 0
24.5232 -28.141 0
24.5918 -23.2881 0
20.3857 -28.1148 0
20.3117 -23.2579 0
38.35 -23.0483 0
38.9382 -18.0713 0
33.5254 -23.2049 0
33.8881 -18.2137 0
38.9382 -18.0713 0
39.5703 -12.8454 0
33.8881 -18.2137 0
34.1793 -13.0068 0
33.5254 -23.2049 0
33.8881 -18.2137 0
28.9699 -23.2794 0
29.1387 -18.2658 0
33.8881 -18.2137 0
34.1793 -13.0068 0
29.1387 -18.2658 0
29.2103 -13.0021 0
39.5703 -12.8454 0
40.3111 -7.33069 0
34.1793 -13.0068 0
34.2514 -7.26906 0
40.3111 -7.33069 0
40.7445 0 0
34.2514 -7.26906 0
34.4123 -1.3383 0
34.1793 -13.0068 0
34.2514 -7.26906 0
29.2103 -13.0021 0
29.1959 -7.49059 0
34.2514 -7.26906 0
34.4123 -1.3383 0
29.1959 -7.49059 0
29.3443 -2.28842 0
28.9699 -23.2794 0
29.1387 -18.2658 0
24.5918 -23.2881 0
24.6043 -18.2606 0
29.1387 -18.2658 0
29.2103 -13.0021 0
24.6043 -18.2606 0
24.5555 -13.065 0
24.5918 -23.2881 0
24.6043 -18.2606 0
20.3117 -23.2579 0
20.2107 -18.2634 0
24.6043 -18.2606 0
24.5555 -13.065 0
20.2107 -18.2634 0
20.129 -13.1933 0
29.2103 -13.0021 0
29.1959 -7.49059 0
24.5555 -13.065 0
24.5634 -7.85128 0
29.1959 -7.49059 0
29.3443 -2.28842 0
24.5634 -7.85128 0
24.6918 -2.95805 0
24.5555 -13.065 0
24.5634 -7.85128 0
20.129 -13.1933 0
20.1272 -8.18169 0
24.5634 -7.85128 0
24.6918 -2.95805 0
20.1272 -8.18169 0
20.2223 -3.46137 0
20.4764 -41.7244 0
20.4608 -37.355 0
16.8316 -41.6705 0
16.645 -37.2966 0
20.4608 -37.355 0
20.4327 -32.8162 0
16.645 -37.2966 0
16.4573 -32.7544 0
16.8316 -41.6705 0
16.645 -37.2966 0
13.1146 -41.5644 0
12.765 -37.1933 0
16.645 -37.2966 0
16.4573 -32.7544 0
12.765 -37.1933 0
12.432 -32.6591 0
20.4327 -32.8162 0
20.3857 -28.1148 0
16.4573 -32.7544 0
16.2671 -28.0556 0
20.3857 -28.1148 0
20.3117 -23.2579 0
16.2671 -28.0556 0
16.0786 -23.2189 0
16.4573 -32.7544 0
16.2671 -28.0556 0
12.432 -32.6591 0
12.1213 -27.9769 0
16.2671 -28.0556 0
16.0786 -23.2189 0
12.1213 -27.9769 0
11.8478 -23.1727 0
13.1146 -41.5644 0
12.765 -37.1933 0
9.25269 -41.413 0
8.75579 -37.0514 0
12.765 -37.1933 0
12.432 -32.6591 0
8.75579 -37.0514 0
8.29526 -32.5322 0
9.25269 -41.413 0
8.75579 -37.0514 0
5.12207 -41.2158 0
4.48523 -36.8694 0
8.75579 -37.0514 0
8.29526 -32.5322 0
4.48523 -36.8694 0
3.90994 -32.3701 0
12.432 -32.6591 0
12.1213 -27.9769 0
8.29526 -32.5322 0
7.88349 -27.8741 0
12.1213 -27.9769 0
11.8478 -23.1727 0
7.88349 -27.8741 0
7.53793 -23.1053 0
8.29526 -32.5322 0
7.88349 -27.8741 0
3.90994 -32.3701 0
3.40514 -27.739 0
7.88349 -27.8741 0
7.53793 -23.1053 0
3.40514 -27.739 0
2.98251 -23.0016 0
20.3117 -23.2579 0
20.2107 -18.2634 0
16.0786 -23.2189 0
15.9134 -18.283 0
20.2107 -18.2634 0
20.129 -13.1933 0
15.9134 -18.283 0
15.808 -13.3199 0
16.0786 -23.2189 0
15.9134 -18.283 0
11.8478 -23.1727 0
11.6344 -18.2931 0
15.9134 -18.283 0
15.808 -13.3199 0
11.6344 -18.2931 0
11.498 -13.4052 0
20.129 -13.1933 0
20.1272 -8.18169 0
15.808 -13.3199 0
15.7868 -8.43678 0
20.1272 -8.18169 0
20.2223 -3.46137 0
15.7868 -8.43678 0
15.8468 -3.82024 0
15.808 -13.3199 0
15.7868 -8.43678 0
11.498 -13.4052 0
11.4501 -8.60326 0
15.7868 -8.43678 0
15.8468 -3.82024 0
11.4501 -8.60326 0
11.4703 -4.01963 0
11.8478 -23.1727 0
11.6344 -18.2931 0
7.53793 -23.1053 0
7.27149 -18.2679 0
11.6344 -18.2931 0
11.498 -13.4052 0
7.27149 -18.2679 0
7.0966 -13.4285 0
7.53793 -23.1053 0
7.27149 -18.2679 0
2.98251 -23.0016 0
2.66695 -18.2005 0
7.27149 -18.2679 0
7.0966 -13.4285 0
2.66695 -18.2005 0
2.4862 -13.4039 0
11.498 -13.4052 0
11.4501 -8.60326 0
7.0966 -13.4285 0
7.01669 -8.67822 0
11.4501 -8.60326 0
11.4703 -4.01963 0
7.01669 -8.67822 0
7.00301 -4.07887 0
7.0966 -13.4285 0
7.01669 -8.67822 0
2.4862 -13.4039 0
2.43096 -8.69072 0
7.01669 -8.67822 0
7.00301 -4.07887 0
2.43096 -8.69072 0
2.42856 -4.08152 0
29.2251 -68.957 0
30.1786 -66.2702 0
26.7473 -69.2383 0
27.4551 -66.5417 0
30.1786 -66.2702 0
31.0965 -63.3429 0
27.4551 -66.5417 0
28.1394 -63.6046 0
26.7473 -69.2383 0
27.4551 -66.5417 0
24.5223 -69.4334 0
24.9863 -66.7309 0
27.4551 -66.5417 0
28.1394 -63.6046 0
24.9863 -66.7309 0
25.4388 -63.7878 0
31.0965 -63.3429 0
31.979 -60.1863 0
28.1394 -63.6046 0
28.7996 -60.438 0
31.979 -60.1863 0
32.8261 -56.8107 0
28.7996 -60.438 0
29.4351 -57.0524 0
28.1394 -63.6046 0
28.7996 -60.438 0
25.4388 -63.7878 0
25.8786 -60.615 0
28.7996 -60.438 0
29.4351 -57.0524 0
25.8786 -60.615 0
26.3044 -57.2227 0
24.5223 -69.4334 0
24.9863 -66.7309 0
22.5018 -69.5409 0
22.7182 -66.8352 0
24.9863 -66.7309 0
25.4388 -63.7878 0
22.7182 -66.8352 0
22.9338 -63.8899 0
22.5018 -69.5409 0
22.7182 -66.8352 0
20.558 -69.5623 0
20.53 -66.856 0
22.7182 -66.8352 0
22.9338 -63.8899 0
20.53 -66.856 0
20.5104 -63.9117 0
25.4388 -63.7878 0
25.8786 -60.615 0
22.9338 -63.8899 0
23.1477 -60.7148 0
25.8786 -60.615 0
26.3044 -57.2227 0
23.1477 -60.7148 0
23.3579 -57.3194 0
22.9338 -63.8899 0
23.1477 -60.7148 0
20.5104 -63.9117 0
20.4983 -60.7377 0
23.1477 -60.7148 0
23.3579 -57.3194 0
20.4983 -60.7377 0
20.4919 -57.3425 0
32.8261 -56.8107 0
33.6376 -53.2263 0
29.4351 -57.0524 0
30.045 -53.4576 0
33.6376 -53.2263 0
34.4131 -49.4425 0
30.045 -53.4576 0
30.6286 -49.6632 0
29.4351 -57.0524 0
30.045 -53.4576 0
26.3044 -57.2227 0
26.7146 -53.6206 0
30.045 -53.4576 0
30.6286 -49.6632 0
26.7146 -53.6206 0
27.1077 -49.8181 0
34.4131 -49.4425 0
35.1524 -45.469 0
30.6286 -49.6632 0
31.1849 -45.6787 0
35.1524 -45.469 0
35.8554 -41.315 0
31.1849 -45.6787 0
31.7131 -41.5136 0
30.6286 -49.6632 0
31.1849 -45.6787 0
27.1077 -49.8181 0
27.4821 -45.8246 0
31.1849 -45.6787 0
31.7131 -41.5136 0
27.4821 -45.8246 0
27.8357 -41.6492 0
26.3044 -57.2227 0
26.7146 -53.6206 0
23.3579 -57.3194 0
23.5625 -53.7129 0
26.7146 -53.6206 0
27.1077 -49.8181 0
23.5625 -53.7129 0
23.7593 -49.9046 0
23.3579 -57.3194 0
23.5625 -53.7129 0
20.4919 -57.3425 0
20.489 -53.7346 0
23.5625 -53.7129 0
23.7593 -49.9046 0
20.489 -53.7346 0
20.4873 -49.9229 0
27.1077 -49.8181 0
27.4821 -45.8246 0
23.7593 -49.9046 0
23.9459 -45.9036 0
27.4821 -45.8246 0
27.8357 -41.6492 0
23.9459 -45.9036 0
24.1199 -41.7189 0
23.7593 -49.9046 0
23.9459 -45.9036 0
20.4873 -49.9229 0
20.4841 -45.9166 0
23.9459 -45.9036 0
24.1199 -41.7189 0
20.4841 -45.9166 0
20.4764 -41.7244 0
20.558 -69.5623 0
20.53 -66.856 0
18.5925 -69.5017 0
18.3276 -66.7972 0
20.53 -66.856 0
20.5104 -63.9117 0
18.3276 -66.7972 0
18.0783 -63.8568 0
18.5925 -69.5017 0
18.3276 -66.7972 0
16.5142 -69.3644 0
16.0223 -66.6642 0
18.3276 -66.7972 0
18.0783 -63.8568 0
16.0223 -66.6642 0
15.5506 -63.7299 0
20.5104 -63.9117 0
20.4983 -60.7377 0
18.0783 -63.8568 0
17.8436 -60.6868 0
20.4983 -60.7377 0
20.4919 -57.3425 0
17.8436 -60.6868 0
17.6224 -57.2947 0
18.0783 -63.8568 0
17.8436 -60.6868 0
15.5506 -63.7299 0
15.0991 -60.5663 0
17.8436 -60.6868 0
17.6224 -57.2947 0
15.0991 -60.5663 0
14.6672 -57.1797 0
16.5142 -69.3644 0
16.0223 -66.6642 0
14.2188 -69.1568 0
13.5099 -66.4635 0
16.0223 -66.6642 0
15.5506 -63.7299 0
13.5099 -66.4635 0
12.825 -63.5368 0
14.2188 -69.1568 0
13.5099 -66.4635 0
11.7168 -68.8776 0
10.779 -66.1927 0
13.5099 -66.4635 0
12.825 -63.5368 0
10.779 -66.1927 0
9.8684 -63.2749 0
15.5506 -63.7299 0
15.0991 -60.5663 0
12.825 -63.5368 0
12.1646 -60.381 0
15.0991 -60.5663 0
14.6672 -57.1797 0
12.1646 -60.381 0
11.5293 -57.0018 0
12.825 -63.5368 0
12.1646 -60.381 0
9.8684 -63.2749 0
8.98755 -60.1284 0
12.1646 -60.381 0
11.5293 -57.0018 0
8.98755 -60.1284 0
8.13877 -56.759 0
20.4919 -57.3425 0
20.489 -53.7346 0
17.6224 -57.2947 0
17.4128 -53.6881 0
20.489 -53.7346 0
20.4873 -49.9229 0
17.4128 -53.6881 0
17.2128 -49.8758 0
17.6224 -57.2947 0
17.4128 -53.6881 0
14.6672 -57.1797 0
14.2539 -53.5773 0
17.4128 -53.6881 0
17.2128 -49.8758 0
14.2539 -53.5773 0
13.8582 -49.7675 0
20.4873 -49.9229 0
20.4841 -45.9166 0
17.2128 -49.8758 0
17.02 -45.8668 0
20.4841 -45.9166 0
20.4764 -41.7244 0
17.02 -45.8668 0
16.8316 -41.6705 0
17.2128 -49.8758 0
17.02 -45.8668 0
13.8582 -49.7675 0
13.4788 -45.7597 0
17.02 -45.8668 0
16.8316 -41.6705 0
13.4788 -45.7597 0
13.1146 -41.5644 0
14.6672 -57.1797 0
14.2539 -53.5773 0
11.5293 -57.0018 0
10.9196 -53.4063 0
14.2539 -53.5773 0
13.8582 -49.7675 0
10.9196 -53.4063 0
10.3364 -49.603 0
11.5293 -57.0018 0
10.9196 -53.4063 0
8.13877 -56.759 0
7.32452 -53.1738 0
10.9196 -53.4063 0
10.3364 -49.603 0
7.32452 -53.1738 0
6.54764 -49.3813 0
13.8582 -49.7675 0
13.4788 -45.7597 0
10.3364 -49.603 0
9.78037 -45.6014 0
13.4788 -45.7597 0
13.1146 -41.5644 0
9.78037 -45.6014 0
9.25269 -41.413 0
10.3364 -49.603 0
9.78037 -45.6014 0
6.54764 -49.3813 0
5.81182 -45.3913 0
9.78037 -45.6014 0
9.25269 -41.413 0
5.81182 -45.3913 0
5.12207 -41.2158 0
20.3722 -79.9619 0
21.5692 -79.7727 0
20.3722 -80.3071 0
21.2164 -80.1161 0
21.5692 -79.7727 0
22.754 -79.2101 0
21.2164 -80.1161 0
22.0548 -79.5482 0
20.3722 -80.3071 0
21.2164 -80.1161 0
20.3722 -80.5804 0
20.9341 -80.385 0
21.2164 -80.1161 0
22.0548 -79.5482 0
20.9341 -80.385 0
21.4879 -79.806 0
22.754 -79.2101 0
23.9163 -78.2878 0
22.0548 -79.5482 0
22.8825 -78.6181 0
23.9163 -78.2878 0
25.0488 -77.0247 0
22.8825 -78.6181 0
23.6951 -77.3457 0
22.0548 -79.5482 0
22.8825 -78.6181 0
21.4879 -79.806 0
22.0282 -78.8619 0
22.8825 -78.6181 0
23.6951 -77.3457 0
22.0282 -78.8619 0
22.5534 -77.5759 0
20.3722 -80.5804 0
20.9341 -80.385 0
20.3722 -80.8779 0
20.7223 -80.6678 0
20.9341 -80.385 0
21.4879 -79.806 0
20.7223 -80.6678 0
21.0492 -80.0525 0
20.3722 -80.8779 0
20.7223 -80.6678 0
20.3722 -81.2037 0
20.5241 -80.9686 0
20.7223 -80.6678 0
21.0492 -80.0525 0
20.5241 -80.9686 0
20.6366 -80.2923 0
21.4879 -79.806 0
22.0282 -78.8619 0
21.0492 -80.0525 0
21.342 -79.0655 0
22.0282 -78.8619 0
22.5534 -77.5759 0
21.342 -79.0655 0
21.6031 -77.7426 0
21.0492 -80.0525 0
21.342 -79.0655 0
20.6366 -80.2923 0
20.6934 -79.235 0
21.342 -79.0655 0
21.6031 -77.7426 0
20.6934 -79.235 0
20.7011 -77.8517 0
25.0488 -77.0247 0
26.1473 -75.4413 0
23.6951 -77.3457 0
24.4896 -75.7525 0
26.1473 -75.4413 0
27.2097 -73.5574 0
24.4896 -75.7525 0
25.2639 -73.8585 0
23.6951 -77.3457 0
24.4896 -75.7525 0
22.5534 -77.5759 0
23.0641 -75.9711 0
24.4896 -75.7525 0
25.2639 -73.8585 0
23.0641 -75.9711 0
23.5616 -74.0678 0
27.2097 -73.5574 0
28.2356 -71.3907 0
25.2639 -73.8585 0
26.0167 -71.6818 0
28.2356 -71.3907 0
29.2251 -68.957 0
26.0167 -71.6818 0
26.7473 -69.2383 0
25.2639 -73.8585 0
26.0167 -71.6818 0
23.5616 -74.0678 0
24.0474 -71.8835 0
26.0167 -71.6818 0
26.7473 -69.2383 0
24.0474 -71.8835 0
24.5223 -69.4334 0
22.5534 -77.5759 0
23.0641 -75.9711 0
21.6031 -77.7426 0
21.8414 -76.1112 0
23.0641 -75.9711 0
23.5616 -74.0678 0
21.8414 -76.1112 0
22.0663 -74.1908 0
21.6031 -77.7426 0
21.8414 -76.1112 0
20.7011 -77.8517 0
20.6758 -76.1768 0
21.8414 -76.1112 0
22.0663 -74.1908 0
20.6758 -76.1768 0
20.6357 -74.2302 0
23.5616 -74.0678 0
24.0474 -71.8835 0
22.0663 -74.1908 0
22.285 -71.9965 0
24.0474 -71.8835 0
24.5223 -69.4334 0
22.285 -71.9965 0
22.5018 -69.5409 0
22.0663 -74.1908 0
22.285 -71.9965 0
20.6357 -74.2302 0
20.5941 -72.0229 0
22.285 -71.9965 0
22.5018 -69.5409 0
20.5941 -72.0229 0
20.558 -69.5623 0
20.3722 -81.2037 0
20.5241 -80.9686 0
20.3722 -81.5396 0
20.315 -81.2625 0
20.5241 -80.9686 0
20.6366 -80.2923 0
20.315 -81.2625 0
20.1976 -80.4939 0
20.3722 -81.5396 0
20.315 -81.2625 0
20.3722 -81.8614 0
20.0619 -81.5137 0
20.315 -81.2625 0
20.1976 -80.4939 0
20.0619 -81.5137 0
19.6805 -80.6065 0
20.6366 -80.2923 0
20.6934 -79.235 0
20.1976 -80.4939 0
20.0052 -79.3417 0
20.6934 -79.235 0
20.7011 -77.8517 0
20.0052 -79.3417 0
19.7498 -77.8821 0
20.1976 -80.4939 0
20.0052 -79.3417 0
19.6805 -80.6065 0
19.1937 -79.3295 0
20.0052 -79.3417 0
19.7498 -77.8821 0
19.1937 -79.3295 0
18.651 -77.8011 0
20.3722 -81.8614 0
20.0619 -81.5137 0
20.3722 -82.1376 0
19.7409 -81.6377 0
20.0619 -81.5137 0
19.6805 -80.6065 0
19.7409 -81.6377 0
18.9564 -80.5063 0
20.3722 -82.1376 0
19.7409 -81.6377 0
20.3722 -82.1697 0
19.0255 -81.4971 0
19.7409 -81.6377 0
18.9564 -80.5063 0
19.0255 -81.4971 0
17.8317 -80.1864 0
19.6805 -80.6065 0
19.1937 -79.3295 0
18.9564 -80.5063 0
18.1085 -79.1432 0
19.1937 -79.3295 0
18.651 -77.8011 0
18.1085 -79.1432 0
17.2842 -77.5929 0
18.9564 -80.5063 0
18.1085 -79.1432 0
17.8317 -80.1864 0
16.7462 -78.8344 0
18.1085 -79.1432 0
17.2842 -77.5929 0
16.7462 -78.8344 0
15.6972 -77.2864 0
20.7011 -77.8517 0
20.6758 -76.1768 0
19.7498 -77.8821 0
19.4609 -76.1583 0
20.6758 -76.1768 0
20.6357 -74.2302 0
19.4609 -76.1583 0
19.1639 -74.1851 0
19.7498 -77.8821 0
19.4609 -76.1583 0
18.651 -77.8011 0
18.0997 -76.0433 0
19.4609 -76.1583 0
19.1639 -74.1851 0
18.0997 -76.0433 0
17.5556 -74.0532 0
20.6357 -74.2302 0
20.5941 -72.0229 0
19.1639 -74.1851 0
18.8722 -71.9655 0
20.5941 -72.0229 0
20.558 -69.5623 0
18.8722 -71.9655 0
18.5925 -69.5017 0
19.1639 -74.1851 0
18.8722 -71.9655 0
17.5556 -74.0532 0
17.0259 -71.8275 0
18.8722 -71.9655 0
18.5925 -69.5017 0
17.0259 -71.8275 0
16.5142 -69.3644 0
18.651 -77.8011 0
18.0997 -76.0433 0
17.2842 -77.5929 0
16.4838 -75.8276 0
18.0997 -76.0433 0
17.5556 -74.0532 0
16.4838 -75.8276 0
15.7062 -73.8371 0
17.2842 -77.5929 0
16.4838 -75.8276 0
15.6972 -77.2864 0
14.6708 -75.5273 0
16.4838 -75.8276 0
15.7062 -73.8371 0
14.6708 -75.5273 0
13.6648 -73.5432 0
17.5556 -74.0532 0
17.0259 -71.8275 0
15.7062 -73.8371 0
14.9511 -71.6145 0
17.0259 -71.8275 0
16.5142 -69.3644 0
14.9511 -71.6145 0
14.2188 -69.1568 0
15.7062 -73.8371 0
14.9511 -71.6145 0
13.6648 -73.5432 0
12.6796 -71.3277 0
14.9511 -71.6145 0
14.2188 -69.1568 0
12.6796 -71.3277 0
11.7168 -68.8776 0
11.5194 -68.957 0
12.5088 -71.3907 0
13.9972 -69.2383 0
14.7278 -71.6818 0
12.5088 -71.3907 0
13.5347 -73.5574 0
14.7278 -71.6818 0
15.4806 -73.8585 0
13.9972 -69.2383 0
14.7278 -71.6818 0
16.2221 -69.4334 0
16.697 -71.8835 0
14.7278 -71.6818 0
15.4806 -73.8585 0
16.697 -71.8835 0
17.1828 -74.0678 0
13.5347 -73.5574 0
14.5972 -75.4413 0
15.4806 -73.8585 0
16.2549 -75.7525 0
14.5972 -75.4413 0
15.6956 -77.0247 0
16.2549 -75.7525 0
17.0493 -77.3457 0
15.4806 -73.8585 0
16.2549 -75.7525 0
17.1828 -74.0678 0
17.6804 -75.9711 0
16.2549 -75.7525 0
17.0493 -77.3457 0
17.6804 -75.9711 0
18.191 -77.5759 0
16.2221 -69.4334 0
16.697 -71.8835 0
18.2426 -69.5409 0
18.4594 -71.9965 0
16.697 -71.8835 0
17.1828 -74.0678 0
18.4594 -71.9965 0
18.6782 -74.1908 0
18.2426 -69.5409 0
18.4594 -71.9965 0
20.1865 -69.5623 0
20.1503 -72.0229 0
18.4594 -71.9965 0
18.6782 -74.1908 0
20.1503 -72.0229 0
20.1088 -74.2302 0
17.1828 -74.0678 0
17.6804 -75.9711 0
18.6782 -74.1908 0
18.903 -76.1112 0
17.6804 -75.9711 0
18.191 -77.5759 0
18.903 -76.1112 0
19.1413 -77.7426 0
18.6782 -74.1908 0
18.903 -76.1112 0
20.1088 -74.2302 0
20.0687 -76.1768 0
18.903 -76.1112 0
19.1413 -77.7426 0
20.0687 -76.1768 0
20.0434 -77.8517 0
15.6956 -77.0247 0
16.8282 -78.2878 0
17.0493 -77.3457 0
17.8619 -78.6181 0
16.8282 -78.2878 0
17.9905 -79.2101 0
17.8619 -78.6181 0
18.6896 -79.5482 0
17.0493 -77.3457 0
17.8619 -78.6181 0
18.191 -77.5759 0
18.7162 -78.8619 0
17.8619 -78.6181 0
18.6896 -79.5482 0
18.7162 -78.8619 0
19.2566 -79.806 0
17.9905 -79.2101 0
19.1752 -79.7727 0
18.6896 -79.5482 0
19.5281 -80.1161 0
19.1752 -79.7727 0
20.3722 -79.9619 0
19.5281 -80.1161 0
20.3722 -80.3071 0
18.6896 -79.5482 0
19.5281 -80.1161 0
19.2566 -79.806 0
19.8104 -80.385 0
19.5281 -80.1161 0
20.3722 -80.3071 0
19.8104 -80.385 0
20.3722 -80.5804 0
18.191 -77.5759 0
18.7162 -78.8619 0
19.1413 -77.7426 0
19.4024 -79.0655 0
18.7162 -78.8619 0
19.2566 -79.806 0
19.4024 -79.0655 0
19.6953 -80.0525 0
19.1413 -77.7426 0
19.4024 -79.0655 0
20.0434 -77.8517 0
20.051 -79.235 0
19.4024 -79.0655 0
19.6953 -80.0525 0
20.051 -79.235 0
20.1078 -80.2923 0
19.2566 -79.806 0
19.8104 -80.385 0
19.6953 -80.0525 0
20.0222 -80.6678 0
19.8104 -80.385 0
20.3722 -80.5804 0
20.0222 -80.6678 0
20.3722 -80.8779 0
19.6953 -80.0525 0
20.0222 -80.6678 0
20.1078 -80.2923 0
20.2203 -80.9686 0
20.0222 -80.6678 0
20.3722 -80.8779 0
20.2203 -80.9686 0
20.3722 -81.2037 0
20.1865 -69.5623 0
20.1503 -72.0229 0
22.152 -69.5017 0
21.8723 -71.9655 0
20.1503 -72.0229 0
20.1088 -74.2302 0
21.8723 -71.9655 0
21.5805 -74.1851 0
22.152 -69.5017 0
21.8723 -71.9655 0
24.2302 -69.3644 0
23.7185 -71.8275 0
21.8723 -71.9655 0
21.5805 -74.1851 0
23.7185 -71.8275 0
23.1889 -74.0532 0
20.1088 -74.2302 0
20.0687 -76.1768 0
21.5805 -74.1851 0
21.2836 -76.1583 0
20.0687 -76.1768 0
20.0434 -77.8517 0
21.2836 -76.1583 0
20.9947 -77.8821 0
21.5805 -74.1851 0
21.2836 -76.1583 0
23.1889 -74.0532 0
22.6448 -76.0433 0
21.2836 -76.1583 0
20.9947 -77.8821 0
22.6448 -76.0433 0
22.0934 -77.8011 0
24.2302 -69.3644 0
23.7185 -71.8275 0
26.5257 -69.1568 0
25.7934 -71.6145 0
23.7185 -71.8275 0
23.1889 -74.0532 0
25.7934 -71.6145 0
25.0383 -73.8371 0
26.5257 -69.1568 0
25.7934 -71.6145 0
29.0276 -68.8776 0
28.0649 -71.3277 0
25.7934 -71.6145 0
25.0383 -73.8371 0
28.0649 -71.3277 0
27.0796 -73.5432 0
23.1889 -74.0532 0
22.6448 -76.0433 0
25.0383 -73.8371 0
24.2607 -75.8276 0
22.6448 -76.0433 0
22.0934 -77.8011 0
24.2607 -75.8276 0
23.4603 -77.5929 0
25.0383 -73.8371 0
24.2607 -75.8276 0
27.0796 -73.5432 0
26.0736 -75.5273 0
24.2607 -75.8276 0
23.4603 -77.5929 0
26.0736 -75.5273 0
25.0472 -77.2864 0
20.0434 -77.8517 0
20.051 -79.235 0
20.9947 -77.8821 0
20.7393 -79.3417 0
20.051 -79.235 0
20.1078 -80.2923 0
20.7393 -79.3417 0
20.5468 -80.4939 0
20.9947 -77.8821 0
20.7393 -79.3417 0
22.0934 -77.8011 0
21.5507 -79.3295 0
20.7393 -79.3417 0
20.5468 -80.4939 0
21.5507 -79.3295 0
21.064 -80.6065 0
20.1078 -80.2923 0
20.2203 -80.9686 0
20.5468 -80.4939 0
20.4295 -81.2625 0
20.2203 -80.9686 0
20.3722 -81.2037 0
20.4295 -81.2625 0
20.3722 -81.5396 0
20.5468 -80.4939 0
20.4295 -81.2625 0
21.064 -80.6065 0
20.6825 -81.5137 0
20.4295 -81.2625 0
20.3722 -81.5396 0
20.6825 -81.5137 0
20.3722 -81.8614 0
22.0934 -77.8011 0
21.5507 -79.3295 0
23.4603 -77.5929 0
22.6359 -79.1432 0
21.5507 -79.3295 0
21.064 -80.6065 0
22.6359 -79.1432 0
21.788 -80.5063 0
23.4603 -77.5929 0
22.6359 -79.1432 0
25.0472 -77.2864 0
23.9982 -78.8344 0
22.6359 -79.1432 0
21.788 -80.5063 0
23.9982 -78.8344 0
22.9128 -80.1864 0
21.064 -80.6065 0
20.6825 -81.5137 0
21.788 -80.5063 0
21.0036 -81.6377 0
20.6825 -81.5137 0
20.3722 -81.8614 0
21.0036 -81.6377 0
20.3722 -82.1376 0
21.788 -80.5063 0
21.0036 -81.6377 0
22.9128 -80.1864 0
21.7189 -81.4971 0
21.0036 -81.6377 0
20.3722 -82.1376 0
21.7189 -81.4971 0
20.3722 -82.1697 0
4.88907 -41.315 0
5.59209 -45.469 0
9.03136 -41.5136 0
9.55958 -45.6787 0
5.59209 -45.469 0
6.33135 -49.4425 0
9.55958 -45.6787 0
10.1159 -49.6632 0
9.03136 -41.5136 0
9.55958 -45.6787 0
12.9088 -41.6492 0
13.2624 -45.8246 0
9.55958 -45.6787 0
10.1159 -49.6632 0
13.2624 -45.8246 0
13.6367 -49.8181 0
6.33135 -49.4425 0
7.10687 -53.2263 0
10.1159 -49.6632 0
10.6994 -53.4576 0
7.10687 -53.2263 0
7.91834 -56.8107 0
10.6994 -53.4576 0
11.3094 -57.0524 0
10.1159 -49.6632 0
10.6994 -53.4576 0
13.6367 -49.8181 0
14.0298 -53.6206 0
10.6994 -53.4576 0
11.3094 -57.0524 0
14.0298 -53.6206 0
14.4401 -57.2227 0
12.9088 -41.6492 0
13.2624 -45.8246 0
16.6246 -41.7189 0
16.7985 -45.9036 0
13.2624 -45.8246 0