# vtk DataFile Version 3.0
#This file was generated by the deal.II library on 2020/9/16 at 9:30:11
ASCII
DATASET UNSTRUCTURED_GRID

POINTS 6144 double
5 0 0
5.0625 0 0
5 0.0625 0
5.0625 0.0625 0
5.0625 0 0
5.125 0 0
5.0625 0.0625 0
5.125 0.0625 0
5 0.0625 0
5.0625 0.0625 0
5 0.125 0
5.0625 0.125 0
5.0625 0.0625 0
5.125 0.0625 0
5.0625 0.125 0
5.125 0.125 0
5.125 0 0
5.1875 0 0
5.125 0.0625 0
5.1875 0.0625 0
5.1875 0 0
5.25 0 0
5.1875 0.0625 0
5.25 0.0625 0
5.125 0.0625 0
5.1875 0.0625 0
5.125 0.125 0
5.1875 0.125 0
5.1875 0.0625 0
5.25 0.0625 0
5.1875 0.125 0
5.25 0.125 0
5 0.125 0
5.0625 0.125 0
5 0.1875 0
5.0625 0.1875 0
5.0625 0.125 0
5.125 0.125 0
5.0625 0.1875 0
5.125 0.1875 0
5 0.1875 0
5.0625 0.1875 0
5 0.25 0
5.0625 0.25 0
5.0625 0.1875 0
5.125 0.1875 0
5.0625 0.25 0
5.125 0.25 0
5.125 0.125 0
5.1875 0.125 0
5.125 0.1875 0
5.1875 0.1875 0
5.1875 0.125 0
5.25 0.125 0
5.1875 0.1875 0
5.25 0.1875 0
5.125 0.1875 0
5.1875 0.1875 0
5.125 0.25 0
5.1875 0.25 0
5.1875 0.1875 0
5.25 0.1875 0
5.1875 0.25 0
5.25 0.25 0
5.25 0 0
5.3125 0 0
5.25 0.0625 0
5.3125 0.0625 0
5.3125 0 0
5.375 0 0
5.3125 0.0625 0
5.375 0.0625 0
5.25 0.0625 0
5.3125 0.0625 0
5.25 0.125 0
5.3125 0.125 0
5.3125 0.0625 0
5.375 0.0625 0
5.3125 0.125 0
5.375 0.125 0
5.375 0 0
5.4375 0 0
5.375 0.0625 0
5.4375 0.0625 0
5.4375 0 0
5.5 0 0
5.4375 0.0625 0
5.5 0.0625 0
5.375 0.0625 0
5.4375 0.0625 0
5.375 0.125 0
5.4375 0.125 0
5.4375 0.0625 0
5.5 0.0625 0
5.4375 0.125 0
5.5 0.125 0
5.25 0.125 0
5.3125 0.125 0
5.25 0.1875 0
5.3125 0.1875 0
5.3125 0.125 0
5.375 0.125 0
5.3125 0.1875 0
5.375 0.1875 0
5.25 0.1875 0
5.3125 0.1875 0
5.25 0.25 0
5.3125 0.25 0
5.3125 0.1875 0
5.375 0.1875 0
5.3125 0.25 0
5.375 0.25 0
5.375 0.125 0
5.4375 0.125 0
5.375 0.1875 0
5.4375 0.1875 0
5.4375 0.125 0
5.5 0.125 0
5.4375 0.1875 0
5.5 0.1875 0
5.375 0.1875 0
5.4375 0.1875 0
5.375 0.25 0
5.4375 0.25 0
5.4375 0.1875 0
5.5 0.1875 0
5.4375 0.25 0
5.5 0.25 0
5 0.25 0
5.0625 0.25 0
5 0.3125 0
5.0625 0.3125 0
5.0625 0.25 0
5.125 0.25 0
5.0625 0.3125 0
5.125 0.3125 0
5 0.3125 0
5.0625 0.3125 0
5 0.375 0
5.0625 0.375 0
5.0625 0.3125 0
5.125 0.3125 0
5.0625 0.375 0
5.125 0.375 0
5.125 0.25 0
5.1875 0.25 0
5.125 0.3125 0
5.1875 0.3125 0
5.1875 0.25 0
5.25 0.25 0
5.1875 0.3125 0
5.25 0.3125 0
5.125 0.3125 0
5.1875 0.3125 0
5.125 0.375 0
5.1875 0.375 0
5.1875 0.3125 0
5.25 0.3125 0
5.1875 0.375 0
5.25 0.375 0
5 0.375 0
5.0625 0.375 0
5 0.4375 0
5.0625 0.4375 0
5.0625 0.375 0
5.125 0.375 0
5.0625 0.4375 0
5.125 0.4375 0
5 0.4375 0
5.0625 0.4375 0
5 0.5 0
5.0625 0.5 0
5.0625 0.4375 0
5.125 0.4375 0
5.0625 0.5 0
5.125 0.5 0
5.125 0.375 0
5.1875 0.375 0
5.125 0.4375 0
5.1875 0.4375 0
5.1875 0.375 0
5.25 0.375 0
5.1875 0.4375 0
5.25 0.4375 0
5.125 0.4375 0
5.1875 0.4375 0
5.125 0.5 0
5.1875 0.5 0
5.1875 0.4375 0
5.25 0.4375 0
5.1875 0.5 0
5.25 0.5 0
5.25 0.25 0
5.3125 0.25 0
5.25 0.3125 0
5.3125 0.3125 0
5.3125 0.25 0
5.375 0.25 0
5.3125 0.3125 0
5.375 0.3125 0
5.25 0.3125 0
5.3125 0.3125 0
5.25 0.375 0
5.3125 0.375 0
5.3125 0.3125 0
5.375 0.3125 0
5.3125 0.375 0
5.375 0.375 0
5.375 0.25 0
5.4375 0.25 0
5.375 0.3125 0
5.4375 0.3125 0
5.4375 0.25 0
5.5 0.25 0
5.4375 0.3125 0
5.5 0.3125 0
5.375 0.3125 0
5.4375 0.3125 0
5.375 0.375 0
5.4375 0.375 0
5.4375 0.3125 0
5.5 0.3125 0
5.4375 0.375 0
5.5 0.375 0
5.25 0.375 0
5.3125 0.375 0
5.25 0.4375 0
5.3125 0.4375 0
5.3125 0.375 0
5.375 0.375 0
5.3125 0.4375 0
5.375 0.4375 0
5.25 0.4375 0
5.3125 0.4375 0
5.25 0.5 0
5.3125 0.5 0
5.3125 0.4375 0
5.375 0.4375 0
5.3125 0.5 0
5.375 0.5 0
5.375 0.375 0
5.4375 0.375 0
5.375 0.4375 0
5.4375 0.4375 0
5.4375 0.375 0
5.5 0.375 0
5.4375 0.4375 0
5.5 0.4375 0
5.375 0.4375 0
5.4375 0.4375 0
5.375 0.5 0
5.4375 0.5 0
5.4375 0.4375 0
5.5 0.4375 0
5.4375 0.5 0
5.5 0.5 0
5.5 0 0
5.5625 0 0
5.5 0.0625 0
5.5625 0.0625 0
5.5625 0 0
5.625 0 0
5.5625 0.0625 0
5.625 0.0625 0
5.5 0.0625 0
5.5625 0.0625 0
5.5 0.125 0
5.5625 0.125 0
5.5625 0.0625 0
5.625 0.0625 0
5.5625 0.125 0
5.625 0.125 0
5.625 0 0
5.6875 0 0
5.625 0.0625 0
5.6875 0.0625 0
5.6875 0 0
5.75 0 0
5.6875 0.0625 0
5.75 0.0625 0
5.625 0.0625 0
5.6875 0.0625 0
5.625 0.125 0
5.6875 0.125 0
5.6875 0.0625 0
5.75 0.0625 0
5.6875 0.125 0
5.75 0.125 0
5.5 0.125 0
5.5625 0.125 0
5.5 0.1875 0
5.5625 0.1875 0
5.5625 0.125 0
5.625 0.125 0
5.5625 0.1875 0
5.625 0.1875 0
5.5 0.1875 0
5.5625 0.1875 0
5.5 0.25 0
5.5625 0.25 0
5.5625 0.1875 0
5.625 0.1875 0
5.5625 0.25 0
5.625 0.25 0
5.625 0.125 0
5.6875 0.125 0
5.625 0.1875 0
5.6875 0.1875 0
5.6875 0.125 0
5.75 0.125 0
5.6875 0.1875 0
5.75 0.1875 0
5.625 0.1875 0
5.6875 0.1875 0
5.625 0.25 0
5.6875 0.25 0
5.6875 0.1875 0
5.75 0.1875 0
5.6875 0.25 0
5.75 0.25 0
5.75 0 0
5.8125 0 0
5.75 0.0625 0
5.8125 0.0625 0
5.8125 0 0
5.875 0 0
5.8125 0.0625 0
5.875 0.0625 0
5.75 0.0625 0
5.8125 0.0625 0
5.75 0.125 0
5.8125 0.125 0
5.8125 0.0625 0
5.875 0.0625 0
5.8125 0.125 0
5.875 0.125 0
5.875 0 0
5.9375 0 0
5.875 0.0625 0
5.9375 0.0625 0
5.9375 0 0
6 0 0
5.9375 0.0625 0
6 0.0625 0
5.875 0.0625 0
5.9375 0.0625 0
5.875 0.125 0
5.9375 0.125 0
5.9375 0.0625 0
6 0.0625 0
5.9375 0.125 0
6 0.125 0
5.75 0.125 0
5.8125 0.125 0
5.75 0.1875 0
5.8125 0.1875 0
5.8125 0.125 0
5.875 0.125 0
5.8125 0.1875 0
5.875 0.1875 0
5.75 0.1875 0
5.8125 0.1875 0
5.75 0.25 0
5.8125 0.25 0
5.8125 0.1875 0
5.875 0.1875 0
5.8125 0.25 0
5.875 0.25 0
5.875 0.125 0
5.9375 0.125 0
5.875 0.1875 0
5.9375 0.1875 0
5.9375 0.125 0
6 0.125 0
5.9375 0.1875 0
6 0.1875 0
5.875 0.1875 0
5.9375 0.1875 0
5.875 0.25 0
5.9375 0.25 0
5.9375 0.1875 0
6 0.1875 0
5.9375 0.25 0
6 0.25 0
5.5 0.25 0
5.5625 0.25 0
5.5 0.3125 0
5.5625 0.3125 0
5.5625 0.25 0
5.625 0.25 0
5.5625 0.3125 0
5.625 0.3125 0
5.5 0.3125 0
5.5625 0.3125 0
5.5 0.375 0
5.5625 0.375 0
5.5625 0.3125 0
5.625 0.3125 0
5.5625 0.375 0
5.625 0.375 0
5.625 0.25 0
5.6875 0.25 0
5.625 0.3125 0
5.6875 0.3125 0
5.6875 0.25 0
5.75 0.25 0
5.6875 0.3125 0
5.75 0.3125 0
5.625 0.3125 0
5.6875 0.3125 0
5.625 0.375 0
5.6875 0.375 0
5.6875 0.3125 0
5.75 0.3125 0
5.6875 0.375 0
5.75 0.375 0
5.5 0.375 0
5.5625 0.375 0
5.5 0.4375 0
5.5625 0.4375 0
5.5625 0.375 0
5.625 0.375 0
5.5625 0.4375 0
5.625 0.4375 0
5.5 0.4375 0
5.5625 0.4375 0
5.5 0.5 0
5.5625 0.5 0
5.5625 0.4375 0
5.625 0.4375 0
5.5625 0.5 0
5.625 0.5 0
5.625 0.375 0
5.6875 0.375 0
5.625 0.4375 0
5.6875 0.4375 0
5.6875 0.375 0
5.75 0.375 0
5.6875 0.4375 0
5.75 0.4375 0
5.625 0.4375 0
5.6875 0.4375 0
5.625 0.5 0
5.6875 0.5 0
5.6875 0.4375 0
5.75 0.4375 0
5.6875 0.5 0
5.75 0.5 0
5.75 0.25 0
5.8125 0.25 0
5.75 0.3125 0
5.8125 0.3125 0
5.8125 0.25 0
5.875 0.25 0
5.8125 0.3125 0
5.875 0.3125 0
5.75 0.3125 0
5.8125 0.3125 0
5.75 0.375 0
5.8125 0.375 0
5.8125 0.3125 0
5.875 0.3125 0
5.8125 0.375 0
5.875 0.375 0
5.875 0.25 0
5.9375 0.25 0
5.875 0.3125 0
5.9375 0.3125 0
5.9375 0.25 0
6 0.25 0
5.9375 0.3125 0
6 0.3125 0
5.875 0.3125 0
5.9375 0.3125 0
5.875 0.375 0
5.9375 0.375 0
5.9375 0.3125 0
6 0.3125 0
5.9375 0.375 0
6 0.375 0
5.75 0.375 0
5.8125 0.375 0
5.75 0.4375 0
5.8125 0.4375 0
5.8125 0.375 0
5.875 0.375 0
5.8125 0.4375 0
5.875 0.4375 0
5.75 0.4375 0
5.8125 0.4375 0
5.75 0.5 0
5.8125 0.5 0
5.8125 0.4375 0
5.875 0.4375 0
5.8125 0.5 0
5.875 0.5 0
5.875 0.375 0
5.9375 0.375 0
5.875 0.4375 0
5.9375 0.4375 0
5.9375 0.375 0
6 0.375 0
5.9375 0.4375 0
6 0.4375 0
5.875 0.4375 0
5.9375 0.4375 0
5.875 0.5 0
5.9375 0.5 0
5.9375 0.4375 0
6 0.4375 0
5.9375 0.5 0
6 0.5 0
5 0.5 0
5.0625 0.5 0
5 0.5625 0
5.0625 0.5625 0
5.0625 0.5 0
5.125 0.5 0
5.0625 0.5625 0
5.125 0.5625 0
5 0.5625 0
5.0625 0.5625 0
5 0.625 0
5.0625 0.625 0
5.0625 0.5625 0
5.125 0.5625 0
5.0625 0.625 0
5.125 0.625 0
5.125 0.5 0
5.1875 0.5 0
5.125 0.5625 0
5.1875 0.5625 0
5.1875 0.5 0
5.25 0.5 0
5.1875 0.5625 0
5.25 0.5625 0
5.125 0.5625 0
5.1875 0.5625 0
5.125 0.625 0
5.1875 0.625 0
5.1875 0.5625 0
5.25 0.5625 0
5.1875 0.625 0
5.25 0.625 0
5 0.625 0
5.0625 0.625 0
5 0.6875 0
5.0625 0.6875 0
5.0625 0.625 0
5.125 0.625 0
5.0625 0.6875 0
5.125 0.6875 0
5 0.6875 0
5.0625 0.6875 0
5 0.75 0
5.0625 0.75 0
5.0625 0.6875 0
5.125 0.6875 0
5.0625 0.75 0
5.125 0.75 0
5.125 0.625 0
5.1875 0.625 0
5.125 0.6875 0
5.1875 0.6875 0
5.1875 0.625 0
5.25 0.625 0
5.1875 0.6875 0
5.25 0.6875 0
5.125 0.6875 0
5.1875 0.6875 0
5.125 0.75 0
5.1875 0.75 0
5.1875 0.6875 0
5.25 0.6875 0
5.1875 0.75 0
5.25 0.75 0
5.25 0.5 0
5.3125 0.5 0
5.25 0.5625 0
5.3125 0.5625 0
5.3125 0.5 0
5.375 0.5 0
5.3125 0.5625 0
5.375 0.5625 0
5.25 0.5625 0
5.3125 0.5625 0
5.25 0.625 0
5.3125 0.625 0
5.3125 0.5625 0
5.375 0.5625 0
5.3125 0.625 0
5.375 0.625 0
5.375 0.5 0
5.4375 0.5 0
5.375 0.5625 0
5.4375 0.5625 0
5.4375 0.5 0
5.5 0.5 0
5.4375 0.5625 0
5.5 0.5625 0
5.375 0.5625 0
5.4375 0.5625 0
5.375 0.625 0
5.4375 0.625 0
5.4375 0.5625 0
5.5 0.5625 0
5.4375 0.625 0
5.5 0.625 0
5.25 0.625 0
5.3125 0.625 0
5.25 0.6875 0
5.3125 0.6875 0
5.3125 0.625 0
5.375 0.625 0
5.3125 0.6875 0
5.375 0.6875 0
5.25 0.6875 0
5.3125 0.6875 0
5.25 0.75 0
5.3125 0.75 0
5.3125 0.6875 0
5.375 0.6875 0
5.3125 0.75 0
5.375 0.75 0
5.375 0.625 0
5.4375 0.625 0
5.375 0.6875 0
5.4375 0.6875 0
5.4375 0.625 0
5.5 0.625 0
5.4375 0.6875 0
5.5 0.6875 0
5.375 0.6875 0
5.4375 0.6875 0
5.375 0.75 0
5.4375 0.75 0
5.4375 0.6875 0
5.5 0.6875 0
5.4375 0.75 0
5.5 0.75 0
5 0.75 0
5.0625 0.75 0
5 0.8125 0
5.0625 0.8125 0
5.0625 0.75 0
5.125 0.75 0
5.0625 0.8125 0
5.125 0.8125 0
5 0.8125 0
5.0625 0.8125 0
5 0.875 0
5.0625 0.875 0
5.0625 0.8125 0
5.125 0.8125 0
5.0625 0.875 0
5.125 0.875 0
5.125 0.75 0
5.1875 0.75 0
5.125 0.8125 0
5.1875 0.8125 0
5.1875 0.75 0
5.25 0.75 0
5.1875 0.8125 0
5.25 0.8125 0
5.125 0.8125 0
5.1875 0.8125 0
5.125 0.875 0
5.1875 0.875 0
5.1875 0.8125 0
5.25 0.8125 0
5.1875 0.875 0
5.25 0.875 0
5 0.875 0
5.0625 0.875 0
5 0.9375 0
5.0625 0.9375 0
5.0625 0.875 0
5.125 0.875 0
5.0625 0.9375 0
5.125 0.9375 0
5 0.9375 0
5.0625 0.9375 0
5 1 0
5.0625 1 0
5.0625 0.9375 0
5.125 0.9375 0
5.0625 1 0
5.125 1 0
5.125 0.875 0
5.1875 0.875 0
5.125 0.9375 0
5.1875 0.9375 0
5.1875 0.875 0
5.25 0.875 0
5.1875 0.9375 0
5.25 0.9375 0
5.125 0.9375 0
5.1875 0.9375 0
5.125 1 0
5.1875 1 0
5.1875 0.9375 0
5.25 0.9375 0
5.1875 1 0
[...]
POINT_DATA 6144
VECTORS displacements double
33.6281 -39.6491 0
33.9456 -37.5389 0
31.5502 -39.7506 0
31.8362 -37.6384 0
33.9456 -37.5389 0
34.258 -35.3968 0
31.8362 -37.6384 0
32.1154 -35.494 0
31.5502 -39.7506 0
31.8362 -37.6384 0
29.8219 -39.8498 0
30.0474 -37.7305 0
31.8362 -37.6384 0
32.1154 -35.494 0
30.0474 -37.7305 0
30.2554 -35.5863 0
34.258 -35.3968 0
34.5675 -33.2172 0
32.1154 -35.494 0
32.3846 -33.3135 0
34.5675 -33.2172 0
34.8709 -30.9959 0
32.3846 -33.3135 0
32.6485 -31.0885 0
32.1154 -35.494 0
32.3846 -33.3135 0
30.2554 -35.5863 0
30.4699 -33.4197 0
32.3846 -33.3135 0
32.6485 -31.0885 0
30.4699 -33.4197 0
30.6781 -31.1821 0
29.8219 -39.8498 0
30.0474 -37.7305 0
28.0648 -39.9978 0
28.257 -37.8568 0
30.0474 -37.7305 0
30.2554 -35.5863 0
28.257 -37.8568 0
28.4487 -35.716 0
28.0648 -39.9978 0
28.257 -37.8568 0
26.2655 -40.1223 0
26.4771 -37.9971 0
28.257 -37.8568 0
28.4487 -35.716 0
26.4771 -37.9971 0
26.6194 -35.8249 0
30.2554 -35.5863 0
30.4699 -33.4197 0
28.4487 -35.716 0
28.6056 -33.5152 0
30.4699 -33.4197 0
30.6781 -31.1821 0
28.6056 -33.5152 0
28.7705 -31.2914 0
28.4487 -35.716 0
28.6056 -33.5152 0
26.6194 -35.8249 0
26.7758 -33.628 0
28.6056 -33.5152 0
28.7705 -31.2914 0
26.7758 -33.628 0
26.8909 -31.3927 0
34.8709 -30.9959 0
35.1701 -28.7294 0
32.6485 -31.0885 0
32.9013 -28.8226 0
35.1701 -28.7294 0
35.4554 -26.4232 0
32.9013 -28.8226 0
33.1584 -26.5091 0
32.6485 -31.0885 0
32.9013 -28.8226 0
30.6781 -31.1821 0
30.8837 -28.9163 0
32.9013 -28.8226 0
33.1584 -26.5091 0
30.8837 -28.9163 0
31.0924 -26.5848 0
35.4554 -26.4232 0
35.7393 -24.0798 0
33.1584 -26.5091 0
33.3979 -24.1715 0
35.7393 -24.0798 0
35.9998 -21.7108 0
33.3979 -24.1715 0
33.6574 -21.7883 0
33.1584 -26.5091 0
33.3979 -24.1715 0
31.0924 -26.5848 0
31.2817 -24.2541 0
33.3979 -24.1715 0
33.6574 -21.7883 0
31.2817 -24.2541 0
31.5294 -21.8546 0
30.6781 -31.1821 0
30.8837 -28.9163 0
28.7705 -31.2914 0
28.9209 -29.0012 0
30.8837 -28.9163 0
31.0924 -26.5848 0
28.9209 -29.0012 0
29.0657 -26.671 0
28.7705 -31.2914 0
28.9209 -29.0012 0
26.8909 -31.3927 0
27.0146 -29.0905 0
28.9209 -29.0012 0
29.0657 -26.671 0
27.0146 -29.0905 0
27.197 -26.7309 0
31.0924 -26.5848 0
31.2817 -24.2541 0
29.0657 -26.671 0
29.2381 -24.3331 0
31.2817 -24.2541 0
31.5294 -21.8546 0
29.2381 -24.3331 0
29.3647 -21.9255 0
29.0657 -26.671 0
29.2381 -24.3331 0
27.197 -26.7309 0
27.3441 -24.4707 0
29.2381 -24.3331 0
29.3647 -21.9255 0
27.3441 -24.4707 0
27.4496 -22.1687 0
26.2655 -40.1223 0
26.4771 -37.9971 0
24.4981 -40.1961 0
24.658 -38.0801 0
26.4771 -37.9971 0
26.6194 -35.8249 0
24.658 -38.0801 0
24.8266 -35.9192 0
24.4981 -40.1961 0
24.658 -38.0801 0
22.7895 -40.225 0
22.9081 -38.1308 0
24.658 -38.0801 0
24.8266 -35.9192 0
22.9081 -38.1308 0
23.013 -35.9876 0
26.6194 -35.8249 0
26.7758 -33.628 0
24.8266 -35.9192 0
24.933 -33.7258 0
26.7758 -33.628 0
26.8909 -31.3927 0
24.933 -33.7258 0
25.0625 -31.4787 0
24.8266 -35.9192 0
24.933 -33.7258 0
23.013 -35.9876 0
23.1516 -33.7885 0
24.933 -33.7258 0
25.0625 -31.4787 0
23.1516 -33.7885 0
23.2297 -31.5676 0
22.7895 -40.225 0
22.9081 -38.1308 0
21.093 -40.25 0
21.183 -38.144 0
22.9081 -38.1308 0
23.013 -35.9876 0
21.183 -38.144 0
21.2693 -36.0194 0
21.093 -40.25 0
21.183 -38.144 0
19.4532 -40.238 0
19.4947 -38.1573 0
21.183 -38.144 0
21.2693 -36.0194 0
19.4947 -38.1573 0
19.5276 -36.0137 0
23.013 -35.9876 0
23.1516 -33.7885 0
21.2693 -36.0194 0
21.3335 -33.8349 0
23.1516 -33.7885 0
23.2297 -31.5676 0
21.3335 -33.8349 0
21.4084 -31.5872 0
21.2693 -36.0194 0
21.3335 -33.8349 0
19.5276 -36.0137 0
19.5758 -33.8471 0
21.3335 -33.8349 0
21.4084 -31.5872 0
19.5758 -33.8471 0
19.5915 -31.6112 0
26.8909 -31.3927 0
27.0146 -29.0905 0
25.0625 -31.4787 0
25.1581 -29.2532 0
27.0146 -29.0905 0
27.197 -26.7309 0
25.1581 -29.2532 0
25.3553 -26.9578 0
25.0625 -31.4787 0
25.1581 -29.2532 0
23.2297 -31.5676 0
23.3205 -29.287 0
25.1581 -29.2532 0
25.3553 -26.9578 0
23.3205 -29.287 0
23.3701 -26.999 0
27.197 -26.7309 0
27.3441 -24.4707 0
25.3553 -26.9578 0
25.4431 -24.5215 0
27.3441 -24.4707 0
27.4496 -22.1687 0
25.4431 -24.5215 0
25.5125 -22.2174 0
25.3553 -26.9578 0
25.4431 -24.5215 0
23.3701 -26.999 0
23.4027 -24.5874 0
25.4431 -24.5215 0
25.5125 -22.2174 0
23.4027 -24.5874 0
23.418 -22.2569 0
23.2297 -31.5676 0
23.3205 -29.287 0
21.4084 -31.5872 0
21.4575 -29.3328 0
23.3205 -29.287 0
23.3701 -26.999 0
21.4575 -29.3328 0
21.5091 -27.0091 0
21.4084 -31.5872 0
21.4575 -29.3328 0
19.5915 -31.6112 0
19.6238 -29.3247 0
21.4575 -29.3328 0
21.5091 -27.0091 0
19.6238 -29.3247 0
19.6341 -27.0294 0
23.3701 -26.999 0
23.4027 -24.5874 0
21.5091 -27.0091 0
21.5395 -24.6509 0
23.4027 -24.5874 0
23.418 -22.2569 0
21.5395 -24.6509 0
21.562 -22.2846 0
21.5091 -27.0091 0
21.5395 -24.6509 0
19.6341 -27.0294 0
19.6306 -24.6578 0
21.5395 -24.6509 0
21.562 -22.2846 0
19.6306 -24.6578 0
19.6499 -22.303 0
35.9998 -21.7108 0
36.2762 -19.3275 0
33.6574 -21.7883 0
33.8821 -19.4145 0
36.2762 -19.3275 0
36.5407 -16.9079 0
33.8821 -19.4145 0
34.1262 -16.9912 0
33.6574 -21.7883 0
33.8821 -19.4145 0
31.5294 -21.8546 0
31.7205 -19.4574 0
33.8821 -19.4145 0
34.1262 -16.9912 0
31.7205 -19.4574 0
31.9055 -17.0882 0
36.5407 -16.9079 0
36.8157 -14.4622 0
34.1262 -16.9912 0
34.3606 -14.5438 0
36.8157 -14.4622 0
37.1172 -11.9602 0
34.3606 -14.5438 0
34.5767 -12.0517 0
34.1262 -16.9912 0
34.3606 -14.5438 0
31.9055 -17.0882 0
32.1015 -14.5948 0
34.3606 -14.5438 0
34.5767 -12.0517 0
32.1015 -14.5948 0
32.2937 -12.0967 0
31.5294 -21.8546 0
31.7205 -19.4574 0
29.3647 -21.9255 0
29.6708 -19.4934 0
31.7205 -19.4574 0
31.9055 -17.0882 0
29.6708 -19.4934 0
29.8075 -17.1103 0
29.3647 -21.9255 0
29.6708 -19.4934 0
27.4496 -22.1687 0
27.653 -19.6058 0
29.6708 -19.4934 0
29.8075 -17.1103 0
27.653 -19.6058 0
27.7706 -17.1277 0
31.9055 -17.0882 0
32.1015 -14.5948 0
29.8075 -17.1103 0
29.9367 -14.7111 0
32.1015 -14.5948 0
32.2937 -12.0967 0
29.9367 -14.7111 0
30.0619 -12.0974 0
29.8075 -17.1103 0
29.9367 -14.7111 0
27.7706 -17.1277 0
27.8643 -14.6996 0
29.9367 -14.7111 0
30.0619 -12.0974 0
27.8643 -14.6996 0
27.9384 -12.2207 0
37.1172 -11.9602 0
37.4053 -9.40446 0
34.5767 -12.0517 0
34.814 -9.47417 0
37.4053 -9.40446 0
37.7825 -6.73805 0
34.814 -9.47417 0
34.9754 -6.85473 0
34.5767 -12.0517 0
34.814 -9.47417 0
32.2937 -12.0967 0
32.4643 -9.50262 0
34.814 -9.47417 0
34.9754 -6.85473 0
32.4643 -9.50262 0
32.5932 -6.84015 0
37.7825 -6.73805 0
38.2022 -3.91082 0
34.9754 -6.85473 0
35.0479 -3.84332 0
38.2022 -3.91082 0
38.4457 0 0
35.0479 -3.84332 0
35.1673 -0.8579 0
34.9754 -6.85473 0
35.0479 -3.84332 0
32.5932 -6.84015 0
32.5822 -4.00597 0
35.0479 -3.84332 0
35.1673 -0.8579 0
32.5822 -4.00597 0
32.6684 -1.42699 0
32.2937 -12.0967 0
32.4643 -9.50262 0
30.0619 -12.0974 0
30.1642 -9.53969 0
32.4643 -9.50262 0
32.5932 -6.84015 0
30.1642 -9.53969 0
30.2241 -6.87256 0
30.0619 -12.0974 0
30.1642 -9.53969 0
27.9384 -12.2207 0
28.0088 -9.55792 0
30.1642 -9.53969 0
30.2241 -6.87256 0
28.0088 -9.55792 0
28.0093 -7.02421 0
32.5932 -6.84015 0
32.5822 -4.00597 0
30.2241 -6.87256 0
30.2662 -4.27807 0
32.5822 -4.00597 0
32.6684 -1.42699 0
30.2662 -4.27807 0
30.3647 -1.80886 0
30.2241 -6.87256 0
30.2662 -4.27807 0
28.0093 -7.02421 0
28.0413 -4.53798 0
30.2662 -4.27807 0
30.3647 -1.80886 0
28.0413 -4.53798 0
28.0766 -2.07597 0
27.4496 -22.1687 0
27.653 -19.6058 0
25.5125 -22.2174 0
25.5903 -19.6407 0
27.653 -19.6058 0
27.7706 -17.1277 0
25.5903 -19.6407 0
25.6545 -17.1561 0
25.5125 -22.2174 0
25.5903 -19.6407 0
23.418 -22.2569 0
23.4369 -19.6858 0
25.5903 -19.6407 0
25.6545 -17.1561 0
23.4369 -19.6858 0
23.6895 -17.1746 0
27.7706 -17.1277 0
27.8643 -14.6996 0
25.6545 -17.1561 0
25.7779 -14.6938 0
27.8643 -14.6996 0
27.9384 -12.2207 0
25.7779 -14.6938 0
25.8425 -12.2063 0
25.6545 -17.1561 0
25.7779 -14.6938 0
23.6895 -17.1746 0
23.7411 -14.7266 0
25.7779 -14.6938 0
25.8425 -12.2063 0
23.7411 -14.7266 0
23.7629 -12.2164 0
23.418 -22.2569 0
23.4369 -19.6858 0
21.562 -22.2846 0
21.6487 -19.7981 0
23.4369 -19.6858 0
23.6895 -17.1746 0
21.6487 -19.7981 0
21.6177 -17.3407 0
21.562 -22.2846 0
21.6487 -19.7981 0
19.6499 -22.303 0
19.5962 -19.8312 0
21.6487 -19.7981 0
21.6177 -17.3407 0
19.5962 -19.8312 0
19.7909 -17.2719 0
23.6895 -17.1746 0
23.7411 -14.7266 0
21.6177 -17.3407 0
21.7649 -14.7404 0
23.7411 -14.7266 0
23.7629 -12.2164 0
21.7649 -14.7404 0
21.7233 -12.3141 0
21.6177 -17.3407 0
21.7649 -14.7404 0
19.7909 -17.2719 0
19.7253 -14.815 0
21.7649 -14.7404 0
21.7233 -12.3141 0
19.7253 -14.815 0
19.6682 -12.3948 0
27.9384 -12.2207 0
28.0088 -9.55792 0
25.8425 -12.2063 0
25.8574 -9.66182 0
28.0088 -9.55792 0
28.0093 -7.02421 0
25.8574 -9.66182 0
25.8645 -7.19329 0
25.8425 -12.2063 0
25.8574 -9.66182 0
23.7629 -12.2164 0
23.7509 -9.79265 0
25.8574 -9.66182 0
25.8645 -7.19329 0
23.7509 -9.79265 0
23.7548 -7.36473 0
28.0093 -7.02421 0
28.0413 -4.53798 0
25.8645 -7.19329 0
25.8985 -4.77164 0
28.0413 -4.53798 0
28.0766 -2.07597 0
25.8985 -4.77164 0
25.8923 -2.32238 0
25.8645 -7.19329 0
25.8985 -4.77164 0
23.7548 -7.36473 0
23.7468 -4.93974 0
25.8985 -4.77164 0
25.8923 -2.32238 0
23.7468 -4.93974 0
23.8053 -2.65106 0
23.7629 -12.2164 0
23.7509 -9.79265 0
21.7233 -12.3141 0
21.6835 -9.9039 0
23.7509 -9.79265 0
23.7548 -7.36473 0
21.6835 -9.9039 0
21.6523 -7.50118 0
21.7233 -12.3141 0
21.6835 -9.9039 0
19.6682 -12.3948 0
19.6275 -10.0058 0
21.6835 -9.9039 0
21.6523 -7.50118 0
19.6275 -10.0058 0
19.5993 -7.63036 0
23.7548 -7.36473 0
23.7468 -4.93974 0
21.6523 -7.50118 0
21.6637 -5.13319 0
23.7468 -4.93974 0
23.8053 -2.65106 0
21.6637 -5.13319 0
21.7265 -2.93446 0
21.6523 -7.50118 0
21.6637 -5.13319 0
19.5993 -7.63036 0
19.614 -5.3227 0
21.6637 -5.13319 0
21.7265 -2.93446 0
19.614 -5.3227 0
19.6689 -3.16156 0
19.4532 -40.238 0
19.4947 -38.1573 0
17.8251 -40.2148 0
17.8177 -38.1318 0
19.4947 -38.1573 0
19.5276 -36.0137 0
17.8177 -38.1318 0
17.8155 -36.0169 0
17.8251 -40.2148 0
17.8177 -38.1318 0
16.2455 -40.1707 0
16.1641 -38.0866 0
17.8177 -38.1318 0
17.8155 -36.0169 0
16.1641 -38.0866 0
16.0979 -35.973 0
19.5276 -36.0137 0
19.5758 -33.8471 0
17.8155 -36.0169 0
17.7862 -33.8162 0
19.5758 -33.8471 0
19.5915 -31.6112 0
17.7862 -33.8162 0
17.8009 -31.6033 0
17.8155 -36.0169 0
17.7862 -33.8162 0
16.0979 -35.973 0
16.0468 -33.794 0
17.7862 -33.8162 0
17.8009 -31.6033 0
16.0468 -33.794 0
15.9557 -31.5542 0
16.2455 -40.1707 0
16.1641 -38.0866 0
14.5843 -40.0939 0
14.4838 -38.0289 0
16.1641 -38.0866 0
16.0979 -35.973 0
14.4838 -38.0289 0
14.3568 -35.9002 0
14.5843 -40.0939 0
14.4838 -38.0289 0
12.9049 -40.0054 0
12.7368 -37.9334 0
14.4838 -38.0289 0
14.3568 -35.9002 0
12.7368 -37.9334 0
12.6031 -35.8199 0
16.0979 -35.973 0
16.0468 -33.794 0
14.3568 -35.9002 0
14.2572 -33.7314 0
16.0468 -33.794 0
15.9557 -31.5542 0
14.2572 -33.7314 0
14.1706 -31.5088 0
14.3568 -35.9002 0
14.2572 -33.7314 0
12.6031 -35.8199 0
12.4358 -33.6407 0
14.2572 -33.7314 0
14.1706 -31.5088 0
12.4358 -33.6407 0
12.3075 -31.4269 0
19.5915 -31.6112 0
19.6238 -29.3247 0
17.8009 -31.6033 0
17.7778 -29.3221 0
19.6238 -29.3247 0
19.6341 -27.0294 0
17.7778 -29.3221 0
17.7708 -26.999 0
17.8009 -31.6033 0
17.7778 -29.3221 0
15.9557 -31.5542 0
15.9439 -29.295 0
17.7778 -29.3221 0
17.7708 -26.999 0
15.9439 -29.295 0
15.9009 -26.9589 0
19.6341 -27.0294 0
19.6306 -24.6578 0
17.7708 -26.999 0
17.7708 -24.6648 0
19.6306 -24.6578 0
19.6499 -22.303 0
17.7708 -24.6648 0
17.7544 -22.2691 0
17.7708 -26.999 0
17.7708 -24.6648 0
15.9009 -26.9589 0
15.8687 -24.6199 0
17.7708 -24.6648 0
17.7544 -22.2691 0
15.8687 -24.6199 0
15.8387 -22.2058 0
15.9557 -31.5542 0
15.9439 -29.295 0
14.1706 -31.5088 0
14.0173 -29.2386 0
15.9439 -29.295 0
15.9009 -26.9589 0
14.0173 -29.2386 0
13.9746 -26.901 0
14.1706 -31.5088 0
14.0173 -29.2386 0
12.3075 -31.4269 0
12.1965 -29.1522 0
14.0173 -29.2386 0
13.9746 -26.901 0
12.1965 -29.1522 0
12.0372 -26.8704 0
15.9009 -26.9589 0
15.8687 -24.6199 0
13.9746 -26.901 0
13.9065 -24.5822 0
15.8687 -24.6199 0
15.8387 -22.2058 0
13.9065 -24.5822 0
13.7801 -22.2095 0
13.9746 -26.901 0
13.9065 -24.5822 0
12.0372 -26.8704 0
11.8787 -24.5634 0
13.9065 -24.5822 0
13.7801 -22.2095 0
11.8787 -24.5634 0
11.7425 -22.2189 0
12.9049 -40.0054 0
12.7368 -37.9334 0
11.1597 -39.8993 0
10.9625 -37.8267 0
12.7368 -37.9334 0
12.6031 -35.8199 0
10.9625 -37.8267 0
10.764 -35.7066 0
11.1597 -39.8993 0
10.9625 -37.8267 0
9.35518 -39.7838 0
9.11635 -37.7201 0
10.9625 -37.8267 0
10.764 -35.7066 0
9.11635 -37.7201 0
8.87903 -35.6174 0
12.6031 -35.8199 0
12.4358 -33.6407 0
10.764 -35.7066 0
10.5907 -33.5436 0
12.4358 -33.6407 0
12.3075 -31.4269 0
10.5907 -33.5436 0
10.3975 -31.3471 0
10.764 -35.7066 0
10.5907 -33.5436 0
8.87903 -35.6174 0
8.64318 -33.4729 0
10.5907 -33.5436 0
10.3975 -31.3471 0
8.64318 -33.4729 0
8.42692 -31.2871 0
9.35518 -39.7838 0
9.11635 -37.7201 0
7.44914 -39.6913 0
7.17944 -37.6302 0
9.11635 -37.7201 0
8.87903 -35.6174 0
7.17944 -37.6302 0
6.91645 -35.5327 0
7.44914 -39.6913 0
7.17944 -37.6302 0
5.46831 -39.596 0
5.18784 -37.5392 0
7.17944 -37.6302 0
6.91645 -35.5327 0
5.18784 -37.5392 0
4.93269 -35.4479 0
8.87903 -35.6174 0
8.64318 -33.4729 0
6.91645 -35.5327 0
6.66395 -33.4065 0
8.64318 -33.4729 0
8.42692 -31.2871 0
6.66395 -33.4065 0
6.42874 -31.2201 0
6.91645 -35.5327 0
6.66395 -33.4065 0
4.93269 -35.4479 0
4.74176 -33.3816 0
6.66395 -33.4065 0
6.42874 -31.2201 0
4.74176 -33.3816 0
4.48227 -31.1952 0
12.3075 -31.4269 0
12.1965 -29.1522 0
10.3975 -31.3471 0
10.2066 -29.1166 0
12.1965 -29.1522 0
12.0372 -26.8704 0
10.2066 -29.1166 0
10.035 -26.8411 0
10.3975 -31.3471 0
10.2066 -29.1166 0
8.42692 -31.2871 0
8.21192 -29.0761 0
10.2066 -29.1166 0
10.035 -26.8411 0
8.21192 -29.0761 0
8.01056 -26.8024 0
12.0372 -26.8704 0
11.8787 -24.5634 0
10.035 -26.8411 0
9.86139 -24.5391 0
11.8787 -24.5634 0
11.7425 -22.2189 0
9.86139 -24.5391 0
9.73302 -22.2417 0
10.035 -26.8411 0
9.86139 -24.5391 0
8.01056 -26.8024 0
7.87599 -24.5504 0
9.86139 -24.5391 0
9.73302 -22.2417 0
7.87599 -24.5504 0
7.70437 -22.2244 0
8.42692 -31.2871 0
8.21192 -29.0761 0
6.42874 -31.2201 0
6.26722 -29.0639 0
8.21192 -29.0761 0
8.01056 -26.8024 0
6.26722 -29.0639 0
6.06236 -26.8044 0
6.42874 -31.2201 0
6.26722 -29.0639 0
4.48227 -31.1952 0
4.16699 -28.9945 0
6.26722 -29.0639 0
6.06236 -26.8044 0
4.16699 -28.9945 0
3.86474 -26.7282 0
8.01056 -26.8024 0
7.87599 -24.5504 0
6.06236 -26.8044 0
5.81743 -24.5061 0
7.87599 -24.5504 0
7.70437 -22.2244 0
5.81743 -24.5061 0
5.59662 -22.1754 0
6.06236 -26.8044 0
5.81743 -24.5061 0
3.86474 -26.7282 0
3.59929 -24.4261 0
5.81743 -24.5061 0
5.59662 -22.1754 0
3.59929 -24.4261 0
3.35258 -22.105 0
19.6499 -22.303 0
19.5962 -19.8312 0
17.7544 -22.2691 0
17.8034 -19.7588 0
19.5962 -19.8312 0
19.7909 -17.2719 0
17.8034 -19.7588 0
17.7239 -17.3152 0
17.7544 -22.2691 0
17.8034 -19.7588 0
15.8387 -22.2058 0
15.7364 -19.7858 0
17.8034 -19.7588 0
17.7239 -17.3152 0
15.7364 -19.7858 0
15.6513 -17.3633 0
19.7909 -17.2719 0
19.7253 -14.815 0
17.7239 -17.3152 0
17.6555 -14.8813 0
19.7253 -14.815 0
19.6682 -12.3948 0
17.6555 -14.8813 0
17.6002 -12.4684 0
17.7239 -17.3152 0
17.6555 -14.8813 0
15.6513 -17.3633 0
15.5739 -14.9371 0
17.6555 -14.8813 0
17.6002 -12.4684 0
15.5739 -14.9371 0
15.5208 -12.5403 0
15.8387 -22.2058 0
15.7364 -19.7858 0
13.7801 -22.2095 0
13.6751 -19.8178 0
15.7364 -19.7858 0
15.6513 -17.3633 0
13.6751 -19.8178 0
13.577 -17.4038 0
13.7801 -22.2095 0
13.6751 -19.8178 0
11.7425 -22.2189 0
11.625 -19.8477 0
13.6751 -19.8178 0
13.577 -17.4038 0
11.625 -19.8477 0
11.5247 -17.4479 0
15.6513 -17.3633 0
15.5739 -14.9371 0
13.577 -17.4038 0
13.5025 -14.9957 0
15.5739 -14.9371 0
15.5208 -12.5403 0
13.5025 -14.9957 0
13.4619 -12.6171 0
13.577 -17.4038 0
13.5025 -14.9957 0
11.5247 -17.4479 0
11.4541 -15.0512 0
13.5025 -14.9957 0
13.4619 -12.6171 0
11.4541 -15.0512 0
11.4039 -12.6808 0
19.6682 -12.3948 0
19.6275 -10.0058 0
17.6002 -12.4684 0
17.56 -10.0941 0
19.6275 -10.0058 0
19.5993 -7.63036 0
17.56 -10.0941 0
17.5476 -7.75549 0
17.6002 -12.4684 0
17.56 -10.0941 0
15.5208 -12.5403 0
15.4975 -10.1858 0
17.56 -10.0941 0
17.5476 -7.75549 0
15.4975 -10.1858 0
15.4953 -7.87199 0
19.5993 -7.63036 0
19.614 -5.3227 0
17.5476 -7.75549 0
17.5681 -5.48708 0
19.614 -5.3227 0
19.6689 -3.16156 0
17.5681 -5.48708 0
17.6145 -3.34521 0
17.5476 -7.75549 0
17.5681 -5.48708 0
15.4953 -7.87199 0
15.5169 -5.62682 0
17.5681 -5.48708 0
17.6145 -3.34521 0
15.5169 -5.62682 0
15.5552 -3.4914 0
15.5208 -12.5403 0
15.4975 -10.1858 0
13.4619 -12.6171 0
13.4401 -10.2727 0
15.4975 -10.1858 0
15.4953 -7.87199 0
13.4401 -10.2727 0
13.4384 -7.97325 0
13.4619 -12.6171 0
13.4401 -10.2727 0
11.4039 -12.6808 0
11.3754 -10.3437 0
13.4401 -10.2727 0
13.4384 -7.97325 0
11.3754 -10.3437 0
11.3675 -8.053 0
15.4953 -7.87199 0
15.5169 -5.62682 0
13.4384 -7.97325 0
13.456 -5.73997 0
15.5169 -5.62682 0
15.5552 -3.4914 0
13.456 -5.73997 0
13.4845 -3.60146 0
13.4384 -7.97325 0
13.456 -5.73997 0
11.3675 -8.053 0
11.3771 -5.82369 0
13.456 -5.73997 0
13.4845 -3.60146 0
11.3771 -5.82369 0
11.3945 -3.67331 0
11.7425 -22.2189 0
11.625 -19.8477 0
9.73302 -22.2417 0
9.60027 -19.8696 0
11.625 -19.8477 0
11.5247 -17.4479 0
9.60027 -19.8696 0
9.48314 -17.4725 0
9.73302 -22.2417 0
9.60027 -19.8696 0
7.70437 -22.2244 0
7.53833 -19.856 0
9.60027 -19.8696 0
9.48314 -17.4725 0
7.53833 -19.856 0
7.39968 -17.4713 0
11.5247 -17.4479 0
11.4541 -15.0512 0
9.48314 -17.4725 0
9.3921 -15.0861 0
11.4541 -15.0512 0
11.4039 -12.6808 0
9.3921 -15.0861 0
9.32762 -12.7217 0
9.48314 -17.4725 0
9.3921 -15.0861 0
7.39968 -17.4713 0
7.29047 -15.0933 0
9.3921 -15.0861 0
9.32762 -12.7217 0
7.29047 -15.0933 0
7.21012 -12.7371 0
7.70437 -22.2244 0
7.53833 -19.856 0
5.59662 -22.1754 0
5.40412 -19.8164 0
7.53833 -19.856 0
7.39968 -17.4713 0
5.40412 -19.8164 0
5.24311 -17.4441 0
5.59662 -22.1754 0
5.40412 -19.8164 0
3.35258 -22.105 0
3.13767 -19.758 0
5.40412 -19.8164 0
5.24311 -17.4441 0
3.13767 -19.758 0
2.96487 -17.3991 0
7.39968 -17.4713 0
7.29047 -15.0933 0
5.24311 -17.4441 0
5.11778 -15.0764 0
7.29047 -15.0933 0
7.21012 -12.7371 0
5.11778 -15.0764 0
5.02876 -12.7298 0
5.24311 -17.4441 0
5.11778 -15.0764 0
2.96487 -17.3991 0
2.83942 -15.0454 0
5.11778 -15.0764 0
5.02876 -12.7298 0
2.83942 -15.0454 0
2.76137 -12.712 0
11.4039 -12.6808 0
11.3754 -10.3437 0
9.32762 -12.7217 0
9.287 -10.392 0
11.3754 -10.3437 0
11.3675 -8.053 0
9.287 -10.392 0
9.26894 -8.10747 0
9.32762 -12.7217 0
9.287 -10.392 0
7.21012 -12.7371 0
7.15774 -10.4151 0
9.287 -10.392 0
9.26894 -8.10747 0
7.15774 -10.4151 0
7.1301 -8.1369 0
11.3675 -8.053 0
11.3771 -5.82369 0
9.26894 -8.10747 0
9.26878 -5.87761 0
11.3771 -5.82369 0
11.3945 -3.67331 0
9.26878 -5.87761 0
9.27562 -3.70855 0
9.26894 -8.10747 0
9.26878 -5.87761 0
7.1301 -8.1369 0
7.12148 -5.9059 0
9.26878 -5.87761 0
9.27562 -3.70855 0
7.12148 -5.9059 0
7.12091 -3.7164 0
7.21012 -12.7371 0
7.15774 -10.4151 0
5.02876 -12.7298 0
4.97315 -10.4171 0
7.15774 -10.4151 0
7.1301 -8.1369 0
4.97315 -10.4171 0
4.94452 -8.1462 0
5.02876 -12.7298 0
4.97315 -10.4171 0
2.76137 -12.712 0
2.72455 -10.4104 0
4.97315 -10.4171 0
4.94452 -8.1462 0
2.72455 -10.4104 0
2.71657 -8.14685 0
7.1301 -8.1369 0
7.12148 -5.9059 0
4.94452 -8.1462 0
4.9341 -5.91625 0
7.12148 -5.9059 0
7.12091 -3.7164 0
4.9341 -5.91625 0
4.93154 -3.7121 0
4.94452 -8.1462 0
4.9341 -5.91625 0
2.71657 -8.14685 0
2.72092 -5.91878 0
4.9341 -5.91625 0
4.93154 -3.7121 0
2.72092 -5.91878 0
2.72362 -3.7094 0
27.6291 -67.1543 0
28.0729 -65.8616 0
26.3908 -67.2928 0
26.767 -65.9969 0
28.0729 -65.8616 0
28.5044 -64.5008 0
26.767 -65.9969 0
27.1344 -64.6324 0
26.3908 -67.2928 0
26.767 -65.9969 0
25.2006 -67.4096 0
25.5127 -66.1123 0
26.767 -65.9969 0
27.1344 -64.6324 0
25.5127 -66.1123 0
25.8209 -64.7458 0
28.5044 -64.5008 0
28.9223 -63.0758 0
27.1344 -64.6324 0
27.4917 -63.203 0
28.9223 -63.0758 0
29.3264 -61.5913 0
27.4917 -63.203 0
27.8381 -61.7139 0
27.1344 -64.6324 0
27.4917 -63.203 0
25.8209 -64.7458 0
26.1263 -63.3134 0
27.4917 -63.203 0
27.8381 -61.7139 0
26.1263 -63.3134 0
26.4271 -61.8192 0
25.2006 -67.4096 0
25.5127 -66.1123 0
24.1584 -67.5085 0
24.4028 -66.2121 0
25.5127 -66.1123 0
25.8209 -64.7458 0