# vtk DataFile Version 3.0
#This file was generated by the deal.II library on 2020/9/2 at 8:40:19
ASCII
DATASET UNSTRUCTURED_GRID

POINTS 1536 double
5 0 0
5.125 0 0
5 0.125 0
5.125 0.125 0
5.125 0 0
5.25 0 0
5.125 0.125 0
5.25 0.125 0
5 0.125 0
5.125 0.125 0
5 0.25 0
5.125 0.25 0
5.125 0.125 0
5.25 0.125 0
5.125 0.25 0
5.25 0.25 0
5.25 0 0
5.375 0 0
5.25 0.125 0
5.375 0.125 0
5.375 0 0
5.5 0 0
5.375 0.125 0
5.5 0.125 0
5.25 0.125 0
5.375 0.125 0
5.25 0.25 0
5.375 0.25 0
5.375 0.125 0
5.5 0.125 0
5.375 0.25 0
5.5 0.25 0
5 0.25 0
5.125 0.25 0
5 0.375 0
5.125 0.375 0
5.125 0.25 0
5.25 0.25 0
5.125 0.375 0
5.25 0.375 0
5 0.375 0
5.125 0.375 0
5 0.5 0
5.125 0.5 0
5.125 0.375 0
5.25 0.375 0
5.125 0.5 0
5.25 0.5 0
5.25 0.25 0
5.375 0.25 0
5.25 0.375 0
5.375 0.375 0
5.375 0.25 0
5.5 0.25 0
5.375 0.375 0
5.5 0.375 0
5.25 0.375 0
5.375 0.375 0
5.25 0.5 0
5.375 0.5 0
5.375 0.375 0
5.5 0.375 0
5.375 0.5 0
5.5 0.5 0
5.5 0 0
5.625 0 0
5.5 0.125 0
5.625 0.125 0
5.625 0 0
5.75 0 0
5.625 0.125 0
5.75 0.125 0
5.5 0.125 0
5.625 0.125 0
5.5 0.25 0
5.625 0.25 0
5.625 0.125 0
5.75 0.125 0
5.625 0.25 0
5.75 0.25 0
5.75 0 0
5.875 0 0
5.75 0.125 0
5.875 0.125 0
5.875 0 0
6 0 0
5.875 0.125 0
6 0.125 0
5.75 0.125 0
5.875 0.125 0
5.75 0.25 0
5.875 0.25 0
5.875 0.125 0
6 0.125 0
5.875 0.25 0
6 0.25 0
5.5 0.25 0
5.625 0.25 0
5.5 0.375 0
5.625 0.375 0
5.625 0.25 0
5.75 0.25 0
5.625 0.375 0
5.75 0.375 0
5.5 0.375 0
5.625 0.375 0
5.5 0.5 0
5.625 0.5 0
5.625 0.375 0
5.75 0.375 0
5.625 0.5 0
5.75 0.5 0
5.75 0.25 0
5.875 0.25 0
5.75 0.375 0
5.875 0.375 0
5.875 0.25 0
6 0.25 0
5.875 0.375 0
6 0.375 0
5.75 0.375 0
5.875 0.375 0
5.75 0.5 0
5.875 0.5 0
5.875 0.375 0
6 0.375 0
5.875 0.5 0
6 0.5 0
5 0.5 0
5.125 0.5 0
5 0.625 0
5.125 0.625 0
5.125 0.5 0
5.25 0.5 0
5.125 0.625 0
5.25 0.625 0
5 0.625 0
5.125 0.625 0
5 0.75 0
5.125 0.75 0
5.125 0.625 0
5.25 0.625 0
5.125 0.75 0
5.25 0.75 0
5.25 0.5 0
5.375 0.5 0
5.25 0.625 0
5.375 0.625 0
5.375 0.5 0
5.5 0.5 0
5.375 0.625 0
5.5 0.625 0
5.25 0.625 0
5.375 0.625 0
5.25 0.75 0
5.375 0.75 0
5.375 0.625 0
5.5 0.625 0
5.375 0.75 0
5.5 0.75 0
5 0.75 0
5.125 0.75 0
5 0.875 0
5.125 0.875 0
5.125 0.75 0
5.25 0.75 0
5.125 0.875 0
5.25 0.875 0
5 0.875 0
5.125 0.875 0
5 1 0
5.125 1 0
5.125 0.875 0
5.25 0.875 0
5.125 1 0
5.25 1 0
5.25 0.75 0
5.375 0.75 0
5.25 0.875 0
5.375 0.875 0
5.375 0.75 0
5.5 0.75 0
5.375 0.875 0
5.5 0.875 0
5.25 0.875 0
5.375 0.875 0
5.25 1 0
5.375 1 0
5.375 0.875 0
5.5 0.875 0
5.375 1 0
5.5 1 0
5.5 0.5 0
5.625 0.5 0
5.5 0.625 0
5.625 0.625 0
5.625 0.5 0
5.75 0.5 0
5.625 0.625 0
5.75 0.625 0
5.5 0.625 0
5.625 0.625 0
5.5 0.75 0
5.625 0.75 0
5.625 0.625 0
5.75 0.625 0
5.625 0.75 0
5.75 0.75 0
5.75 0.5 0
5.875 0.5 0
5.75 0.625 0
5.875 0.625 0
5.875 0.5 0
6 0.5 0
5.875 0.625 0
6 0.625 0
5.75 0.625 0
5.875 0.625 0
5.75 0.75 0
5.875 0.75 0
5.875 0.625 0
6 0.625 0
5.875 0.75 0
6 0.75 0
5.5 0.75 0
5.625 0.75 0
5.5 0.875 0
5.625 0.875 0
5.625 0.75 0
5.75 0.75 0
5.625 0.875 0
5.75 0.875 0
5.5 0.875 0
5.625 0.875 0
5.5 1 0
5.625 1 0
5.625 0.875 0
5.75 0.875 0
5.625 1 0
5.75 1 0
5.75 0.75 0
5.875 0.75 0
5.75 0.875 0
5.875 0.875 0
5.875 0.75 0
6 0.75 0
5.875 0.875 0
6 0.875 0
5.75 0.875 0
5.875 0.875 0
5.75 1 0
5.875 1 0
5.875 0.875 0
6 0.875 0
5.875 1 0
6 1 0
4 0 0
4.125 0 0
4 0.125 0
4.125 0.125 0
4.125 0 0
4.25 0 0
4.125 0.125 0
4.25 0.125 0
4 0.125 0
4.125 0.125 0
4 0.25 0
4.125 0.25 0
4.125 0.125 0
4.25 0.125 0
4.125 0.25 0
4.25 0.25 0
4.25 0 0
4.375 0 0
4.25 0.125 0
4.375 0.125 0
4.375 0 0
4.5 0 0
4.375 0.125 0
4.5 0.125 0
4.25 0.125 0
4.375 0.125 0
4.25 0.25 0
4.375 0.25 0
4.375 0.125 0
4.5 0.125 0
4.375 0.25 0
4.5 0.25 0
4 0.25 0
4.125 0.25 0
4 0.375 0
4.125 0.375 0
4.125 0.25 0
4.25 0.25 0
4.125 0.375 0
4.25 0.375 0
4 0.375 0
4.125 0.375 0
4 0.5 0
4.125 0.5 0
4.125 0.375 0
4.25 0.375 0
4.125 0.5 0
4.25 0.5 0
4.25 0.25 0
4.375 0.25 0
4.25 0.375 0
4.375 0.375 0
4.375 0.25 0
4.5 0.25 0
4.375 0.375 0
4.5 0.375 0
4.25 0.375 0
4.375 0.375 0
4.25 0.5 0
4.375 0.5 0
4.375 0.375 0
4.5 0.375 0
4.375 0.5 0
4.5 0.5 0
4.5 0 0
4.625 0 0
4.5 0.125 0
4.625 0.125 0
4.625 0 0
4.75 0 0
4.625 0.125 0
4.75 0.125 0
4.5 0.125 0
4.625 0.125 0
4.5 0.25 0
4.625 0.25 0
4.625 0.125 0
4.75 0.125 0
4.625 0.25 0
4.75 0.25 0
4.75 0 0
4.875 0 0
4.75 0.125 0
4.875 0.125 0
4.875 0 0
5 0 0
4.875 0.125 0
5 0.125 0
4.75 0.125 0
4.875 0.125 0
4.75 0.25 0
4.875 0.25 0
4.875 0.125 0
5 0.125 0
4.875 0.25 0
5 0.25 0
4.5 0.25 0
4.625 0.25 0
4.5 0.375 0
4.625 0.375 0
4.625 0.25 0
4.75 0.25 0
4.625 0.375 0
4.75 0.375 0
4.5 0.375 0
4.625 0.375 0
4.5 0.5 0
4.625 0.5 0
4.625 0.375 0
4.75 0.375 0
4.625 0.5 0
4.75 0.5 0
4.75 0.25 0
4.875 0.25 0
4.75 0.375 0
4.875 0.375 0
4.875 0.25 0
5 0.25 0
4.875 0.375 0
5 0.375 0
4.75 0.375 0
4.875 0.375 0
4.75 0.5 0
4.875 0.5 0
4.875 0.375 0
5 0.375 0
4.875 0.5 0
5 0.5 0
4 0.5 0
4.125 0.5 0
4 0.625 0
4.125 0.625 0
4.125 0.5 0
4.25 0.5 0
4.125 0.625 0
4.25 0.625 0
4 0.625 0
4.125 0.625 0
4 0.75 0
4.125 0.75 0
4.125 0.625 0
4.25 0.625 0
4.125 0.75 0
4.25 0.75 0
4.25 0.5 0
4.375 0.5 0
4.25 0.625 0
4.375 0.625 0
4.375 0.5 0
4.5 0.5 0
4.375 0.625 0
4.5 0.625 0
4.25 0.625 0
4.375 0.625 0
4.25 0.75 0
4.375 0.75 0
4.375 0.625 0
4.5 0.625 0
4.375 0.75 0
4.5 0.75 0
4 0.75 0
4.125 0.75 0
4 0.875 0
4.125 0.875 0
4.125 0.75 0
4.25 0.75 0
4.125 0.875 0
4.25 0.875 0
4 0.875 0
4.125 0.875 0
4 1 0
4.125 1 0
4.125 0.875 0
4.25 0.875 0
4.125 1 0
4.25 1 0
4.25 0.75 0
4.375 0.75 0
4.25 0.875 0
4.375 0.875 0
4.375 0.75 0
4.5 0.75 0
4.375 0.875 0
4.5 0.875 0
4.25 0.875 0
4.375 0.875 0
4.25 1 0
4.375 1 0
4.375 0.875 0
4.5 0.875 0
4.375 1 0
4.5 1 0
4.5 0.5 0
4.625 0.5 0
4.5 0.625 0
4.625 0.625 0
4.625 0.5 0
4.75 0.5 0
4.625 0.625 0
4.75 0.625 0
4.5 0.625 0
4.625 0.625 0
4.5 0.75 0
4.625 0.75 0
4.625 0.625 0
4.75 0.625 0
4.625 0.75 0
4.75 0.75 0
4.75 0.5 0
4.875 0.5 0
4.75 0.625 0
4.875 0.625 0
4.875 0.5 0
5 0.5 0
4.875 0.625 0
5 0.625 0
4.75 0.625 0
4.875 0.625 0
4.75 0.75 0
4.875 0.75 0
4.875 0.625 0
5 0.625 0
4.875 0.75 0
5 0.75 0
4.5 0.75 0
4.625 0.75 0
4.5 0.875 0
4.625 0.875 0
4.625 0.75 0
4.75 0.75 0
4.625 0.875 0
4.75 0.875 0
4.5 0.875 0
4.625 0.875 0
4.5 1 0
4.625 1 0
4.625 0.875 0
4.75 0.875 0
4.625 1 0
4.75 1 0
4.75 0.75 0
4.875 0.75 0
4.75 0.875 0
4.875 0.875 0
4.875 0.75 0
5 0.75 0
4.875 0.875 0
5 0.875 0
4.75 0.875 0
4.875 0.875 0
4.75 1 0
4.875 1 0
4.875 0.875 0
5 0.875 0
4.875 1 0
5 1 0
3 0 0
3.125 0 0
3 0.125 0
3.125 0.125 0
3.125 0 0
3.25 0 0
3.125 0.125 0
3.25 0.125 0
3 0.125 0
3.125 0.125 0
3 0.25 0
3.125 0.25 0
3.125 0.125 0
3.25 0.125 0
3.125 0.25 0
3.25 0.25 0
3.25 0 0
3.375 0 0
3.25 0.125 0
3.375 0.125 0
3.375 0 0
3.5 0 0
3.375 0.125 0
3.5 0.125 0
3.25 0.125 0
3.375 0.125 0
3.25 0.25 0
3.375 0.25 0
3.375 0.125 0
3.5 0.125 0
3.375 0.25 0
3.5 0.25 0
3 0.25 0
3.125 0.25 0
3 0.375 0
3.125 0.375 0
3.125 0.25 0
3.25 0.25 0
3.125 0.375 0
3.25 0.375 0
3 0.375 0
3.125 0.375 0
3 0.5 0
3.125 0.5 0
3.125 0.375 0
3.25 0.375 0
3.125 0.5 0
3.25 0.5 0
3.25 0.25 0
3.375 0.25 0
3.25 0.375 0
3.375 0.375 0
3.375 0.25 0
3.5 0.25 0
3.375 0.375 0
3.5 0.375 0
3.25 0.375 0
3.375 0.375 0
3.25 0.5 0
3.375 0.5 0
3.375 0.375 0
3.5 0.375 0
3.375 0.5 0
3.5 0.5 0
3.5 0 0
3.625 0 0
3.5 0.125 0
3.625 0.125 0
3.625 0 0
3.75 0 0
3.625 0.125 0
3.75 0.125 0
3.5 0.125 0
3.625 0.125 0
3.5 0.25 0
3.625 0.25 0
3.625 0.125 0
3.75 0.125 0
3.625 0.25 0
3.75 0.25 0
3.75 0 0
3.875 0 0
3.75 0.125 0
3.875 0.125 0
3.875 0 0
4 0 0
3.875 0.125 0
4 0.125 0
3.75 0.125 0
3.875 0.125 0
3.75 0.25 0
3.875 0.25 0
3.875 0.125 0
4 0.125 0
3.875 0.25 0
4 0.25 0
3.5 0.25 0
3.625 0.25 0
3.5 0.375 0
3.625 0.375 0
3.625 0.25 0
3.75 0.25 0
3.625 0.375 0
3.75 0.375 0
3.5 0.375 0
3.625 0.375 0
3.5 0.5 0
3.625 0.5 0
3.625 0.375 0
3.75 0.375 0
3.625 0.5 0
3.75 0.5 0
3.75 0.25 0
3.875 0.25 0
3.75 0.375 0
3.875 0.375 0
3.875 0.25 0
4 0.25 0
3.875 0.375 0
4 0.375 0
3.75 0.375 0
3.875 0.375 0
3.75 0.5 0
3.875 0.5 0
3.875 0.375 0
4 0.375 0
3.875 0.5 0
4 0.5 0
3 0.5 0
3.125 0.5 0
3 0.625 0
3.125 0.625 0
3.125 0.5 0
3.25 0.5 0
3.125 0.625 0
3.25 0.625 0
3 0.625 0
3.125 0.625 0
3 0.75 0
3.125 0.75 0
3.125 0.625 0
3.25 0.625 0
3.125 0.75 0
3.25 0.75 0
3.25 0.5 0
3.375 0.5 0
3.25 0.625 0
3.375 0.625 0
3.375 0.5 0
3.5 0.5 0
3.375 0.625 0
3.5 0.625 0
3.25 0.625 0
3.375 0.625 0
3.25 0.75 0
3.375 0.75 0
3.375 0.625 0
3.5 0.625 0
3.375 0.75 0
3.5 0.75 0
3 0.75 0
3.125 0.75 0
3 0.875 0
3.125 0.875 0
3.125 0.75 0
3.25 0.75 0
3.125 0.875 0
3.25 0.875 0
3 0.875 0
3.125 0.875 0
3 1 0
3.125 1 0
3.125 0.875 0
3.25 0.875 0
3.125 1 0
3.25 1 0
3.25 0.75 0
3.375 0.75 0
3.25 0.875 0
3.375 0.875 0
3.375 0.75 0
3.5 0.75 0
3.375 0.875 0
3.5 0.875 0
3.25 0.875 0
3.375 0.875 0
3.25 1 0
3.375 1 0
3.375 0.875 0
3.5 0.875 0
3.375 1 0
3.5 1 0
3.5 0.5 0
3.625 0.5 0
3.5 0.625 0
3.625 0.625 0
3.625 0.5 0
3.75 0.5 0
3.625 0.625 0
3.75 0.625 0
3.5 0.625 0
3.625 0.625 0
3.5 0.75 0
3.625 0.75 0
3.625 0.625 0
3.75 0.625 0
3.625 0.75 0
3.75 0.75 0
3.75 0.5 0
3.875 0.5 0
3.75 0.625 0
3.875 0.625 0
3.875 0.5 0
4 0.5 0
3.875 0.625 0
4 0.625 0
3.75 0.625 0
3.875 0.625 0
3.75 0.75 0
3.875 0.75 0
3.875 0.625 0
4 0.625 0
3.875 0.75 0
4 0.75 0
3.5 0.75 0
3.625 0.75 0
3.5 0.875 0
3.625 0.875 0
3.625 0.75 0
3.75 0.75 0
3.625 0.875 0
3.75 0.875 0
3.5 0.875 0
3.625 0.875 0
3.5 1 0
3.625 1 0
3.625 0.875 0
3.75 0.875 0
3.625 1 0
3.75 1 0
3.75 0.75 0
3.875 0.75 0
3.75 0.875 0
3.875 0.875 0
3.875 0.75 0
4 0.75 0
3.875 0.875 0
4 0.875 0
3.75 0.875 0
3.875 0.875 0
3.75 1 0
3.875 1 0
3.875 0.875 0
4 0.875 0
3.875 1 0
4 1 0
2 0 0
2.125 0 0
2 0.125 0
2.125 0.125 0
2.125 0 0
2.25 0 0
2.125 0.125 0
2.25 0.125 0
2 0.125 0
2.125 0.125 0
2 0.25 0
2.125 0.25 0
2.125 0.125 0
2.25 0.125 0
2.125 0.25 0
2.25 0.25 0
2.25 0 0
2.375 0 0
2.25 0.125 0
2.375 0.125 0
2.375 0 0
2.5 0 0
2.375 0.125 0
2.5 0.125 0
2.25 0.125 0
2.375 0.125 0
2.25 0.25 0
2.375 0.25 0
2.375 0.125 0
2.5 0.125 0
2.375 0.25 0
2.5 0.25 0
2 0.25 0
2.125 0.25 0
2 0.375 0
2.125 0.375 0
2.125 0.25 0
2.25 0.25 0
2.125 0.375 0
2.25 0.375 0
2 0.375 0
2.125 0.375 0
2 0.5 0
2.125 0.5 0
2.125 0.375 0
2.25 0.375 0
2.125 0.5 0
2.25 0.5 0
2.25 0.25 0
2.375 0.25 0
2.25 0.375 0
2.375 0.375 0
2.375 0.25 0
[...]
POINT_DATA 1536
VECTORS displacements double
37.4502 -43.5966 0
38.1587 -39.0221 0
33.0685 -43.8067 0
33.5979 -39.2218 0
38.1587 -39.0221 0
38.8367 -34.2719 0
33.5979 -39.2218 0
34.1 -34.4617 0
33.0685 -43.8067 0
33.5979 -39.2218 0
29.061 -43.949 0
29.4136 -39.3537 0
33.5979 -39.2218 0
34.1 -34.4617 0
29.4136 -39.3537 0
29.7421 -34.581 0
38.8367 -34.2719 0
39.4888 -29.3513 0
34.1 -34.4617 0
34.5746 -29.531 0
39.4888 -29.3513 0
40.1255 -24.2582 0
34.5746 -29.531 0
35.0191 -24.4313 0
34.1 -34.4617 0
34.5746 -29.531 0
29.7421 -34.581 0
30.0408 -29.6366 0
34.5746 -29.531 0
35.0191 -24.4313 0
30.0408 -29.6366 0
30.3046 -24.5156 0
29.061 -43.949 0
29.4136 -39.3537 0
25.2316 -44.0195 0
25.4026 -39.4139 0
29.4136 -39.3537 0
29.7421 -34.581 0
25.4026 -39.4139 0
25.5542 -34.6282 0
25.2316 -44.0195 0
25.4026 -39.4139 0
21.4805 -44.0189 0
21.47 -39.4043 0
25.4026 -39.4139 0
25.5542 -34.6282 0
21.47 -39.4043 0
21.446 -34.6082 0
29.7421 -34.581 0
30.0408 -29.6366 0
25.5542 -34.6282 0
25.6811 -29.6661 0
30.0408 -29.6366 0
30.3046 -24.5156 0
25.6811 -29.6661 0
25.7689 -24.5317 0
25.5542 -34.6282 0
25.6811 -29.6661 0
21.446 -34.6082 0
21.4032 -29.6363 0
25.6811 -29.6661 0
25.7689 -24.5317 0
21.4032 -29.6363 0
21.338 -24.4913 0
40.1255 -24.2582 0
40.7627 -18.9849 0
35.0191 -24.4313 0
35.4294 -19.1421 0
40.7627 -18.9849 0
41.4508 -13.452 0
35.4294 -19.1421 0
35.7681 -13.6376 0
35.0191 -24.4313 0
35.4294 -19.1421 0
30.3046 -24.5156 0
30.5088 -19.21 0
35.4294 -19.1421 0
35.7681 -13.6376 0
30.5088 -19.21 0
30.6402 -13.6348 0
41.4508 -13.452 0
42.247 -7.64219 0
35.7681 -13.6376 0
35.8975 -7.57008 0
42.247 -7.64219 0
42.6826 0 0
35.8975 -7.57008 0
36.0744 -1.38029 0
35.7681 -13.6376 0
35.8975 -7.57008 0
30.6402 -13.6348 0
30.6301 -7.81552 0
35.8975 -7.57008 0
36.0744 -1.38029 0
30.6301 -7.81552 0
30.7776 -2.34503 0
30.3046 -24.5156 0
30.5088 -19.21 0
25.7689 -24.5317 0
25.8162 -19.2025 0
30.5088 -19.21 0
30.6402 -13.6348 0
25.8162 -19.2025 0
25.7632 -13.7068 0
25.7689 -24.5317 0
25.8162 -19.2025 0
21.338 -24.4913 0
21.2232 -19.2135 0
25.8162 -19.2025 0
25.7632 -13.7068 0
21.2232 -19.2135 0
21.1236 -13.8658 0
30.6402 -13.6348 0
30.6301 -7.81552 0
25.7632 -13.7068 0
25.7684 -8.21784 0
30.6301 -7.81552 0
30.7776 -2.34503 0
25.7684 -8.21784 0
25.8855 -3.00867 0
25.7632 -13.7068 0
25.7684 -8.21784 0
21.1236 -13.8658 0
21.1037 -8.56649 0
25.7684 -8.21784 0
25.8855 -3.00867 0
21.1037 -8.56649 0
21.1882 -3.54329 0
21.4805 -44.0189 0
21.47 -39.4043 0
17.7271 -43.9509 0
17.5345 -39.3321 0
21.47 -39.4043 0
21.446 -34.6082 0
17.5345 -39.3321 0
17.3388 -34.5307 0
17.7271 -43.9509 0
17.5345 -39.3321 0
13.8878 -43.8229 0
13.5158 -39.2079 0
17.5345 -39.3321 0
17.3388 -34.5307 0
13.5158 -39.2079 0
13.1523 -34.4227 0
21.446 -34.6082 0
21.4032 -29.6363 0
17.3388 -34.5307 0
17.1343 -29.5633 0
21.4032 -29.6363 0
21.338 -24.4913 0
17.1343 -29.5633 0
16.9186 -24.4573 0
17.3388 -34.5307 0
17.1343 -29.5633 0
13.1523 -34.4227 0
12.7996 -29.4817 0
17.1343 -29.5633 0
16.9186 -24.4573 0
12.7996 -29.4817 0
12.4834 -24.417 0
13.8878 -43.8229 0
13.5158 -39.2079 0
9.86285 -43.6537 0
9.32256 -39.05 0
13.5158 -39.2079 0
13.1523 -34.4227 0
9.32256 -39.05 0
8.81375 -34.2867 0
9.86285 -43.6537 0
9.32256 -39.05 0
5.51168 -43.444 0
4.84975 -38.8556 0
9.32256 -39.05 0
8.81375 -34.2867 0
4.84975 -38.8556 0
4.25829 -34.1213 0
13.1523 -34.4227 0
12.7996 -29.4817 0
8.81375 -34.2867 0
8.36522 -29.3771 0
12.7996 -29.4817 0
12.4834 -24.417 0
8.36522 -29.3771 0
8.00145 -24.3658 0
8.81375 -34.2867 0
8.36522 -29.3771 0
4.25829 -34.1213 0
3.73067 -29.2535 0
8.36522 -29.3771 0
8.00145 -24.3658 0
3.73067 -29.2535 0
3.25731 -24.2613 0
21.338 -24.4913 0
21.2232 -19.2135 0
16.9186 -24.4573 0
16.7198 -19.25 0
21.2232 -19.2135 0
21.1236 -13.8658 0
16.7198 -19.25 0
16.5906 -14.0149 0
16.9186 -24.4573 0
16.7198 -19.25 0
12.4834 -24.417 0
12.2458 -19.2791 0
16.7198 -19.25 0
16.5906 -14.0149 0
12.2458 -19.2791 0
12.0857 -14.1202 0
21.1236 -13.8658 0
21.1037 -8.56649 0
16.5906 -14.0149 0
16.549 -8.84262 0
21.1037 -8.56649 0
21.1882 -3.54329 0
16.549 -8.84262 0
16.6122 -3.95985 0
16.5906 -14.0149 0
16.549 -8.84262 0
12.0857 -14.1202 0
12.023 -9.03685 0
16.549 -8.84262 0
16.6122 -3.95985 0
12.023 -9.03685 0
12.0469 -4.21092 0
12.4834 -24.417 0
12.2458 -19.2791 0
8.00145 -24.3658 0
7.70433 -19.2688 0
12.2458 -19.2791 0
12.0857 -14.1202 0
7.70433 -19.2688 0
7.4959 -14.1518 0
8.00145 -24.3658 0
7.70433 -19.2688 0
3.25731 -24.2613 0
2.88413 -19.1931 0
7.70433 -19.2688 0
7.4959 -14.1518 0
2.88413 -19.1931 0
2.65685 -14.1214 0
12.0857 -14.1202 0
12.023 -9.03685 0
7.4959 -14.1518 0
7.39597 -9.12931 0
12.023 -9.03685 0
12.0469 -4.21092 0
7.39597 -9.12931 0
7.37897 -4.29188 0
7.4959 -14.1518 0
7.39597 -9.12931 0
2.65685 -14.1214 0
2.58182 -9.14445 0
7.39597 -9.12931 0
7.37897 -4.29188 0
2.58182 -9.14445 0
2.57712 -4.29695 0
30.5448 -72.8705 0
31.5344 -70.0179 0
27.9142 -73.1614 0
28.6426 -70.2985 0
31.5344 -70.0179 0
32.4862 -66.9105 0
28.6426 -70.2985 0
29.348 -67.1811 0
27.9142 -73.1614 0
28.6426 -70.2985 0
25.6288 -73.36 0
26.0988 -70.4905 0
28.6426 -70.2985 0
29.348 -67.1811 0
26.0988 -70.4905 0
26.5608 -67.3668 0
32.4862 -66.9105 0
33.4012 -63.5624 0
29.348 -67.1811 0
30.03 -63.823 0
33.4012 -63.5624 0
34.2803 -59.986 0
30.03 -63.823 0
30.6879 -60.2366 0
29.348 -67.1811 0
30.03 -63.823 0
26.5608 -67.3668 0
27.0133 -64.0023 0
30.03 -63.823 0
30.6879 -60.2366 0
27.0133 -64.0023 0
27.4544 -60.4093 0
25.6288 -73.36 0
26.0988 -70.4905 0
23.5667 -73.4646 0
23.7742 -70.5914 0
26.0988 -70.4905 0
26.5608 -67.3668 0
23.7742 -70.5914 0
23.9869 -67.4654 0
23.5667 -73.4646 0
23.7742 -70.5914 0
21.581 -73.4776 0
21.5327 -70.6029 0
23.7742 -70.5914 0
23.9869 -67.4654 0
21.5327 -70.6029 0
21.4995 -67.4781 0
26.5608 -67.3668 0
27.0133 -64.0023 0
23.9869 -67.4654 0
24.2033 -64.0985 0
27.0133 -64.0023 0
27.4544 -60.4093 0
24.2033 -64.0985 0
24.4208 -60.5023 0
23.9869 -67.4654 0
24.2033 -64.0985 0
21.4995 -67.4781 0
21.4806 -64.113 0
24.2033 -64.0985 0
24.4208 -60.5023 0
21.4806 -64.113 0
21.4735 -60.5174 0
34.2803 -59.986 0
35.1244 -56.1919 0
30.6879 -60.2366 0
31.3213 -56.4325 0
35.1244 -56.1919 0
35.9338 -52.1897 0
31.3213 -56.4325 0
31.9296 -52.4203 0
30.6879 -60.2366 0
31.3213 -56.4325 0
27.4544 -60.4093 0
27.8816 -56.5984 0
31.3213 -56.4325 0
31.9296 -52.4203 0
27.8816 -56.5984 0
28.2931 -52.5793 0
35.9338 -52.1897 0
36.7089 -47.9885 0
31.9296 -52.4203 0
32.5122 -48.2089 0
36.7089 -47.9885 0
37.4502 -43.5966 0
32.5122 -48.2089 0
33.0685 -43.8067 0
31.9296 -52.4203 0
32.5122 -48.2089 0
28.2931 -52.5793 0
28.6868 -48.3601 0
32.5122 -48.2089 0
33.0685 -43.8067 0
28.6868 -48.3601 0
29.061 -43.949 0
27.4544 -60.4093 0
27.8816 -56.5984 0
24.4208 -60.5023 0
24.6361 -56.6875 0
27.8816 -56.5984 0
28.2931 -52.5793 0
24.6361 -56.6875 0
24.8451 -52.6635 0
24.4208 -60.5023 0
24.6361 -56.6875 0
21.4735 -60.5174 0
21.4746 -56.7012 0
24.6361 -56.6875 0
24.8451 -52.6635 0
21.4746 -56.7012 0
21.4792 -52.6738 0
28.2931 -52.5793 0
28.6868 -48.3601 0
24.8451 -52.6635 0
25.0445 -48.4384 0
28.6868 -48.3601 0
29.061 -43.949 0
25.0445 -48.4384 0
25.2316 -44.0195 0
24.8451 -52.6635 0
25.0445 -48.4384 0
21.4792 -52.6738 0
21.4825 -48.444 0
25.0445 -48.4384 0
25.2316 -44.0195 0
21.4825 -48.444 0
21.4805 -44.0189 0
21.581 -73.4776 0
21.5327 -70.6029 0
19.5669 -73.4043 0
19.2745 -70.5302 0
21.5327 -70.6029 0
21.4995 -67.4781 0
19.2745 -70.5302 0
19.0041 -67.4099 0
19.5669 -73.4043 0
19.2745 -70.5302 0
17.4298 -73.2517 0
16.9076 -70.3811 0
19.2745 -70.5302 0
19.0041 -67.4099 0
16.9076 -70.3811 0
16.4111 -67.268 0
21.4995 -67.4781 0
21.4806 -64.113 0
19.0041 -67.4099 0
18.7554 -64.0501 0
21.4806 -64.113 0
21.4735 -60.5174 0
18.7554 -64.0501 0
18.526 -60.4587 0
19.0041 -67.4099 0
18.7554 -64.0501 0
16.4111 -67.268 0
15.9398 -63.9164 0
18.7554 -64.0501 0
18.526 -60.4587 0
15.9398 -63.9164 0
15.4919 -60.3319 0
17.4298 -73.2517 0
16.9076 -70.3811 0
15.0488 -73.0304 0
14.3135 -70.1665 0
16.9076 -70.3811 0
16.4111 -67.268 0
14.3135 -70.1665 0
13.6029 -67.0621 0
15.0488 -73.0304 0
14.3135 -70.1665 0
12.3778 -72.7416 0
11.4084 -69.8858 0
14.3135 -70.1665 0
13.6029 -67.0621 0
11.4084 -69.8858 0
10.4649 -66.7902 0
16.4111 -67.268 0
15.9398 -63.9164 0
13.6029 -67.0621 0
12.9173 -63.7195 0
15.9398 -63.9164 0
15.4919 -60.3319 0
12.9173 -63.7195 0
12.2571 -60.143 0
13.6029 -67.0621 0
12.9173 -63.7195 0
10.4649 -66.7902 0
9.54996 -63.4568 0
12.9173 -63.7195 0
12.2571 -60.143 0
9.54996 -63.4568 0
8.66623 -59.89 0
21.4735 -60.5174 0
21.4746 -56.7012 0
18.526 -60.4587 0
18.3128 -56.644 0
21.4746 -56.7012 0
21.4792 -52.6738 0
18.3128 -56.644 0
18.1117 -52.6149 0
18.526 -60.4587 0
18.3128 -56.644 0
15.4919 -60.3319 0
15.0656 -56.5212 0
18.3128 -56.644 0
18.1117 -52.6149 0
15.0656 -56.5212 0
14.6585 -52.4926 0
21.4792 -52.6738 0
21.4825 -48.444 0
18.1117 -52.6149 0
17.9183 -48.3807 0
21.4825 -48.444 0
21.4805 -44.0189 0
17.9183 -48.3807 0
17.7271 -43.9509 0
18.1117 -52.6149 0
17.9183 -48.3807 0
14.6585 -52.4926 0
14.2673 -48.2558 0
17.9183 -48.3807 0
17.7271 -43.9509 0
14.2673 -48.2558 0
13.8878 -43.8229 0
15.4919 -60.3319 0
15.0656 -56.5212 0
12.2571 -60.143 0
11.6221 -56.3388 0
15.0656 -56.5212 0
14.6585 -52.4926 0
11.6221 -56.3388 0
11.0122 -52.3147 0
12.2571 -60.143 0
11.6221 -56.3388 0
8.66623 -59.89 0
7.81635 -56.0957 0
11.6221 -56.3388 0
11.0122 -52.3147 0
7.81635 -56.0957 0
7.00369 -52.0819 0
14.6585 -52.4926 0
14.2673 -48.2558 0
11.0122 -52.3147 0
10.4262 -48.0816 0
14.2673 -48.2558 0
13.8878 -43.8229 0
10.4262 -48.0816 0
9.86285 -43.6537 0
11.0122 -52.3147 0
10.4262 -48.0816 0
7.00369 -52.0819 0
6.23306 -47.8596 0
10.4262 -48.0816 0
9.86285 -43.6537 0
6.23306 -47.8596 0
5.51168 -43.444 0
21.3413 -84.5068 0
22.5858 -84.3068 0
21.3413 -84.8645 0
22.2117 -84.6626 0
22.5858 -84.3068 0
23.8172 -83.7126 0
22.2117 -84.6626 0
23.0776 -84.0631 0
21.3413 -84.8645 0
22.2117 -84.6626 0
21.3413 -85.1823 0
21.9512 -84.9714 0
22.2117 -84.6626 0
23.0776 -84.0631 0
21.9512 -84.9714 0
22.5422 -84.3503 0
23.8172 -83.7126 0
25.0248 -82.7402 0
23.0776 -84.0631 0
23.9332 -83.0826 0
25.0248 -82.7402 0
26.2018 -81.4093 0
23.9332 -83.0826 0
24.773 -81.7421 0
23.0776 -84.0631 0
23.9332 -83.0826 0
22.5422 -84.3503 0
23.1061 -83.3464 0
23.9332 -83.0826 0
24.773 -81.7421 0
23.1061 -83.3464 0
23.6446 -81.9863 0
21.3413 -85.1823 0
21.9512 -84.9714 0
21.3413 -85.5856 0
21.7621 -85.3529 0
21.9512 -84.9714 0
22.5422 -84.3503 0
21.7621 -85.3529 0
22.1415 -84.6766 0
21.3413 -85.5856 0
21.7621 -85.3529 0
21.3413 -86.0094 0
21.5669 -85.748 0
21.7621 -85.3529 0
22.1415 -84.6766 0
21.5669 -85.748 0
21.7339 -84.9991 0
22.5422 -84.3503 0
23.1061 -83.3464 0
22.1415 -84.6766 0
22.4612 -83.6056 0
23.1061 -83.3464 0
23.6446 -81.9863 0
22.4612 -83.6056 0
22.7277 -82.1859 0
22.1415 -84.6766 0
22.4612 -83.6056 0
21.7339 -84.9991 0
21.8185 -83.8388 0
22.4612 -83.6056 0
22.7277 -82.1859 0
21.8185 -83.8388 0
21.8285 -82.3371 0
26.2018 -81.4093 0
27.3441 -79.7393 0
24.773 -81.7421 0
25.5923 -80.0618 0
27.3441 -79.7393 0
28.4495 -77.7481 0
25.5923 -80.0618 0
26.3893 -78.06 0
24.773 -81.7421 0
25.5923 -80.0618 0
23.6446 -81.9863 0
24.1626 -80.2908 0
25.5923 -80.0618 0
26.3893 -78.06 0
24.1626 -80.2908 0
24.6635 -78.2769 0
28.4495 -77.7481 0
29.5166 -75.4528 0
26.3893 -78.06 0
27.1632 -75.7542 0
29.5166 -75.4528 0
30.5448 -72.8705 0
27.1632 -75.7542 0
27.9142 -73.1614 0
26.3893 -78.06 0
27.1632 -75.7542 0
24.6635 -78.2769 0
25.1509 -75.9608 0
27.1632 -75.7542 0
27.9142 -73.1614 0
25.1509 -75.9608 0
25.6288 -73.36 0
23.6446 -81.9863 0
24.1626 -80.2908 0
22.7277 -82.1859 0
22.9562 -80.4475 0
24.1626 -80.2908 0
24.6635 -78.2769 0
22.9562 -80.4475 0
23.163 -78.4049 0
22.7277 -82.1859 0
22.9562 -80.4475 0
21.8285 -82.3371 0
21.7838 -80.5305 0
22.9562 -80.4475 0
23.163 -78.4049 0
21.7838 -80.5305 0
21.7147 -78.4467 0
24.6635 -78.2769 0
25.1509 -75.9608 0
23.163 -78.4049 0
23.3639 -76.0731 0
25.1509 -75.9608 0
25.6288 -73.36 0
23.3639 -76.0731 0
23.5667 -73.4646 0
23.163 -78.4049 0
23.3639 -76.0731 0
21.7147 -78.4467 0
21.6434 -76.0942 0
23.3639 -76.0731 0
23.5667 -73.4646 0
21.6434 -76.0942 0
21.581 -73.4776 0
21.3413 -86.0094 0
21.5669 -85.748 0
21.3413 -86.4337 0
21.3509 -86.1258 0
21.5669 -85.748 0
21.7339 -84.9991 0
21.3509 -86.1258 0
21.28 -85.2711 0
21.3413 -86.4337 0
21.3509 -86.1258 0
21.3413 -86.84 0
21.0757 -86.4528 0
21.3509 -86.1258 0
21.28 -85.2711 0
21.0757 -86.4528 0
20.7265 -85.4394 0
21.7339 -84.9991 0
21.8185 -83.8388 0
21.28 -85.2711 0
21.1072 -83.9993 0
21.8185 -83.8388 0
21.8285 -82.3371 0
21.1072 -83.9993 0
20.8454 -82.3964 0
21.28 -85.2711 0
21.1072 -83.9993 0
20.7265 -85.4394 0
20.2461 -84.0173 0
21.1072 -83.9993 0
20.8454 -82.3964 0
20.2461 -84.0173 0
19.6911 -82.3324 0
21.3413 -86.84 0
21.0757 -86.4528 0
21.3413 -87.1948 0
20.7205 -86.6255 0
21.0757 -86.4528 0
20.7265 -85.4394 0
20.7205 -86.6255 0
19.9343 -85.3621 0
21.3413 -87.1948 0
20.7205 -86.6255 0
21.3413 -87.2067 0
19.9194 -86.4773 0
20.7205 -86.6255 0
19.9343 -85.3621 0
19.9194 -86.4773 0
18.6735 -85.0355 0
20.7265 -85.4394 0
20.2461 -84.0173 0
19.9343 -85.3621 0
19.0709 -83.8426 0
20.2461 -84.0173 0
19.6911 -82.3324 0
19.0709 -83.8426 0
18.2234 -82.1271 0
19.9343 -85.3621 0
19.0709 -83.8426 0
18.6735 -85.0355 0
17.5511 -83.5259 0
19.0709 -83.8426 0
18.2234 -82.1271 0
17.5511 -83.5259 0
16.472 -81.8121 0
21.8285 -82.3371 0
21.7838 -80.5305 0
20.8454 -82.3964 0
20.5338 -80.5243 0
21.7838 -80.5305 0
21.7147 -78.4467 0
20.5338 -80.5243 0
20.2053 -78.4008 0
20.8454 -82.3964 0
20.5338 -80.5243 0
19.6911 -82.3324 0
19.1158 -80.4144 0
20.5338 -80.5243 0
20.2053 -78.4008 0
19.1158 -80.4144 0
18.5402 -78.2646 0
21.7147 -78.4467 0
21.6434 -76.0942 0
20.2053 -78.4008 0
19.8792 -76.0281 0
21.6434 -76.0942 0
21.581 -73.4776 0
19.8792 -76.0281 0
19.5669 -73.4043 0
20.2053 -78.4008 0
19.8792 -76.0281 0
18.5402 -78.2646 0
17.9756 -75.8787 0
19.8792 -76.0281 0
19.5669 -73.4043 0
17.9756 -75.8787 0
17.4298 -73.2517 0
19.6911 -82.3324 0
19.1158 -80.4144 0
18.2234 -82.1271 0
17.3964 -80.1959 0
19.1158 -80.4144 0
18.5402 -78.2646 0
17.3964 -80.1959 0
16.5911 -78.0408 0
18.2234 -82.1271 0
17.3964 -80.1959 0
16.472 -81.8121 0
15.418 -79.8867 0
17.3964 -80.1959 0
16.5911 -78.0408 0
15.418 -79.8867 0
14.3844 -77.7377 0
18.5402 -78.2646 0
17.9756 -75.8787 0
16.5911 -78.0408 0
15.8082 -75.6542 0
17.9756 -75.8787 0
17.4298 -73.2517 0
15.8082 -75.6542 0
15.0488 -73.0304 0
16.5911 -78.0408 0
15.8082 -75.6542 0
14.3844 -77.7377 0
13.3706 -75.3578 0
15.8082 -75.6542 0
15.0488 -73.0304 0
13.3706 -75.3578 0
12.3778 -72.7416 0
12.1378 -72.8705 0
13.1661 -75.4528 0
14.7684 -73.1614 0
15.5194 -75.7542 0
13.1661 -75.4528 0
14.2331 -77.7481 0
15.5194 -75.7542 0
16.2934 -78.06 0
14.7684 -73.1614 0
15.5194 -75.7542 0
17.0538 -73.36 0
17.5317 -75.9608 0
15.5194 -75.7542 0
16.2934 -78.06 0
17.5317 -75.9608 0
18.0191 -78.2769 0
14.2331 -77.7481 0
15.3385 -79.7393 0
16.2934 -78.06 0
17.0903 -80.0618 0
15.3385 -79.7393 0
16.4808 -81.4093 0
17.0903 -80.0618 0
17.9097 -81.7421 0
16.2934 -78.06 0
17.0903 -80.0618 0
18.0191 -78.2769 0
18.52 -80.2908 0
17.0903 -80.0618 0
17.9097 -81.7421 0
18.52 -80.2908 0
19.038 -81.9863 0
17.0538 -73.36 0
17.5317 -75.9608 0
19.1159 -73.4646 0
19.3187 -76.0731 0
17.5317 -75.9608 0
18.0191 -78.2769 0
19.3187 -76.0731 0
19.5197 -78.4049 0
19.1159 -73.4646 0
19.3187 -76.0731 0
21.1016 -73.4776 0
21.0392 -76.0942 0
19.3187 -76.0731 0
19.5197 -78.4049 0
21.0392 -76.0942 0
20.9679 -78.4467 0
18.0191 -78.2769 0
18.52 -80.2908 0
19.5197 -78.4049 0
19.7264 -80.4475 0
18.52 -80.2908 0
19.038 -81.9863 0
19.7264 -80.4475 0
19.9549 -82.1859 0
19.5197 -78.4049 0
19.7264 -80.4475 0
20.9679 -78.4467 0
20.8989 -80.5305 0
19.7264 -80.4475 0
19.9549 -82.1859 0
20.8989 -80.5305 0
20.8541 -82.3371 0
16.4808 -81.4093 0
17.6578 -82.7402 0
17.9097 -81.7421 0
18.7494 -83.0826 0
17.6578 -82.7402 0
18.8654 -83.7126 0
18.7494 -83.0826 0
19.6051 -84.0631 0
17.9097 -81.7421 0
18.7494 -83.0826 0
19.038 -81.9863 0
19.5766 -83.3464 0
18.7494 -83.0826 0
19.6051 -84.0631 0
19.5766 -83.3464 0
20.1405 -84.3503 0
18.8654 -83.7126 0
20.0968 -84.3068 0
19.6051 -84.0631 0
20.4709 -84.6626 0
20.0968 -84.3068 0
21.3413 -84.5068 0
20.4709 -84.6626 0
21.3413 -84.8645 0
19.6051 -84.0631 0
20.4709 -84.6626 0
20.1405 -84.3503 0
20.7315 -84.9714 0
20.4709 -84.6626 0
21.3413 -84.8645 0
20.7315 -84.9714 0
21.3413 -85.1823 0
19.038 -81.9863 0
19.5766 -83.3464 0
19.9549 -82.1859 0
20.2214 -83.6056 0
19.5766 -83.3464 0
20.1405 -84.3503 0
20.2214 -83.6056 0
20.5411 -84.6766 0
19.9549 -82.1859 0
20.2214 -83.6056 0
20.8541 -82.3371 0
20.8641 -83.8388 0
20.2214 -83.6056 0
20.5411 -84.6766 0
20.8641 -83.8388 0
20.9487 -84.9991 0
20.1405 -84.3503 0
20.7315 -84.9714 0
20.5411 -84.6766 0
20.9205 -85.3529 0
20.7315 -84.9714 0
21.3413 -85.1823 0
20.9205 -85.3529 0
21.3413 -85.5856 0
20.5411 -84.6766 0
20.9205 -85.3529 0
20.9487 -84.9991 0
21.1157 -85.748 0
20.9205 -85.3529 0
21.3413 -85.5856 0
21.1157 -85.748 0
21.3413 -86.0094 0
21.1016 -73.4776 0
21.0392 -76.0942 0
23.1157 -73.4043 0
22.8035 -76.0281 0
21.0392 -76.0942 0
20.9679 -78.4467 0
22.8035 -76.0281 0
22.4773 -78.4008 0
23.1157 -73.4043 0
22.8035 -76.0281 0
25.2528 -73.2517 0
24.707 -75.8787 0
22.8035 -76.0281 0
22.4773 -78.4008 0
24.707 -75.8787 0
24.1424 -78.2646 0
20.9679 -78.4467 0
20.8989 -80.5305 0
22.4773 -78.4008 0
22.1488 -80.5243 0
20.8989 -80.5305 0
20.8541 -82.3371 0
22.1488 -80.5243 0
21.8372 -82.3964 0
22.4773 -78.4008 0
22.1488 -80.5243 0
24.1424 -78.2646 0
23.5668 -80.4144 0
22.1488 -80.5243 0
21.8372 -82.3964 0
23.5668 -80.4144 0
22.9915 -82.3324 0
25.2528 -73.2517 0
24.707 -75.8787 0
27.6338 -73.0304 0
26.8744 -75.6542 0
24.707 -75.8787 0
24.1424 -78.2646 0
26.8744 -75.6542 0
26.0915 -78.0408 0
27.6338 -73.0304 0
26.8744 -75.6542 0
30.3048 -72.7416 0
29.312 -75.3578 0
26.8744 -75.6542 0
26.0915 -78.0408 0
29.312 -75.3578 0
28.2982 -77.7377 0
24.1424 -78.2646 0
23.5668 -80.4144 0
26.0915 -78.0408 0
25.2862 -80.1959 0
23.5668 -80.4144 0
22.9915 -82.3324 0
25.2862 -80.1959 0
24.4592 -82.1271 0
26.0915 -78.0408 0
25.2862 -80.1959 0
28.2982 -77.7377 0
27.2646 -79.8867 0
25.2862 -80.1959 0
24.4592 -82.1271 0
27.2646 -79.8867 0
26.2106 -81.8121 0
20.8541 -82.3371 0
20.8641 -83.8388 0
21.8372 -82.3964 0
21.5754 -83.9993 0
20.8641 -83.8388 0
20.9487 -84.9991 0
21.5754 -83.9993 0
21.4026 -85.2711 0
21.8372 -82.3964 0
21.5754 -83.9993 0
22.9915 -82.3324 0
22.4365 -84.0173 0
21.5754 -83.9993 0
21.4026 -85.2711 0
22.4365 -84.0173 0
21.9561 -85.4394 0
20.9487 -84.9991 0
21.1157 -85.748 0
21.4026 -85.2711 0
21.3317 -86.1258 0
21.1157 -85.748 0
21.3413 -86.0094 0
21.3317 -86.1258 0
21.3413 -86.4337 0
21.4026 -85.2711 0
21.3317 -86.1258 0
21.9561 -85.4394 0
21.6069 -86.4528 0
21.3317 -86.1258 0
21.3413 -86.4337 0
21.6069 -86.4528 0
21.3413 -86.84 0
22.9915 -82.3324 0
22.4365 -84.0173 0
24.4592 -82.1271 0
23.6117 -83.8426 0
22.4365 -84.0173 0
21.9561 -85.4394 0
23.6117 -83.8426 0
22.7483 -85.3621 0
24.4592 -82.1271 0
23.6117 -83.8426 0
26.2106 -81.8121 0
25.1315 -83.5259 0
23.6117 -83.8426 0
22.7483 -85.3621 0
25.1315 -83.5259 0
24.0091 -85.0355 0
21.9561 -85.4394 0
21.6069 -86.4528 0
22.7483 -85.3621 0
21.9621 -86.6255 0
21.6069 -86.4528 0
21.3413 -86.84 0
21.9621 -86.6255 0
21.3413 -87.1948 0
22.7483 -85.3621 0
21.9621 -86.6255 0
24.0091 -85.0355 0
22.7633 -86.4773 0
21.9621 -86.6255 0
21.3413 -87.1948 0
22.7633 -86.4773 0
21.3413 -87.2067 0
5.23243 -43.5966 0
5.97371 -47.9885 0
9.61416 -43.8067 0
10.1704 -48.2089 0
5.97371 -47.9885 0
6.74884 -52.1897 0
10.1704 -48.2089 0
10.753 -52.4203 0
9.61416 -43.8067 0
10.1704 -48.2089 0
13.6217 -43.949 0
13.9958 -48.3601 0
10.1704 -48.2089 0
10.753 -52.4203 0
13.9958 -48.3601 0
14.3895 -52.5793 0
6.74884 -52.1897 0
7.55825 -56.1919 0
10.753 -52.4203 0
11.3613 -56.4325 0
7.55825 -56.1919 0
8.40227 -59.986 0
11.3613 -56.4325 0
11.9947 -60.2366 0
10.753 -52.4203 0
11.3613 -56.4325 0
14.3895 -52.5793 0
14.801 -56.5984 0
11.3613 -56.4325 0
11.9947 -60.2366 0
14.801 -56.5984 0
15.2282 -60.4093 0
13.6217 -43.949 0
13.9958 -48.3601 0
17.4511 -44.0195 0
17.6381 -48.4384 0
13.9958 -48.3601 0
14.3895 -52.5793 0