# vtk DataFile Version 3.0
#This file was generated by the deal.II library on 2020/9/2 at 8:41:39
ASCII
DATASET UNSTRUCTURED_GRID

POINTS 1536 double
5 0 0
5.125 0 0
5 0.125 0
5.125 0.125 0
5.125 0 0
5.25 0 0
5.125 0.125 0
5.25 0.125 0
5 0.125 0
5.125 0.125 0
5 0.25 0
5.125 0.25 0
5.125 0.125 0
5.25 0.125 0
5.125 0.25 0
5.25 0.25 0
5.25 0 0
5.375 0 0
5.25 0.125 0
5.375 0.125 0
5.375 0 0
5.5 0 0
5.375 0.125 0
5.5 0.125 0
5.25 0.125 0
5.375 0.125 0
5.25 0.25 0
5.375 0.25 0
5.375 0.125 0
5.5 0.125 0
5.375 0.25 0
5.5 0.25 0
5 0.25 0
5.125 0.25 0
5 0.375 0
5.125 0.375 0
5.125 0.25 0
5.25 0.25 0
5.125 0.375 0
5.25 0.375 0
5 0.375 0
5.125 0.375 0
5 0.5 0
5.125 0.5 0
5.125 0.375 0
5.25 0.375 0
5.125 0.5 0
5.25 0.5 0
5.25 0.25 0
5.375 0.25 0
5.25 0.375 0
5.375 0.375 0
5.375 0.25 0
5.5 0.25 0
5.375 0.375 0
5.5 0.375 0
5.25 0.375 0
5.375 0.375 0
5.25 0.5 0
5.375 0.5 0
5.375 0.375 0
5.5 0.375 0
5.375 0.5 0
5.5 0.5 0
5.5 0 0
5.625 0 0
5.5 0.125 0
5.625 0.125 0
5.625 0 0
5.75 0 0
5.625 0.125 0
5.75 0.125 0
5.5 0.125 0
5.625 0.125 0
5.5 0.25 0
5.625 0.25 0
5.625 0.125 0
5.75 0.125 0
5.625 0.25 0
5.75 0.25 0
5.75 0 0
5.875 0 0
5.75 0.125 0
5.875 0.125 0
5.875 0 0
6 0 0
5.875 0.125 0
6 0.125 0
5.75 0.125 0
5.875 0.125 0
5.75 0.25 0
5.875 0.25 0
5.875 0.125 0
6 0.125 0
5.875 0.25 0
6 0.25 0
5.5 0.25 0
5.625 0.25 0
5.5 0.375 0
5.625 0.375 0
5.625 0.25 0
5.75 0.25 0
5.625 0.375 0
5.75 0.375 0
5.5 0.375 0
5.625 0.375 0
5.5 0.5 0
5.625 0.5 0
5.625 0.375 0
5.75 0.375 0
5.625 0.5 0
5.75 0.5 0
5.75 0.25 0
5.875 0.25 0
5.75 0.375 0
5.875 0.375 0
5.875 0.25 0
6 0.25 0
5.875 0.375 0
6 0.375 0
5.75 0.375 0
5.875 0.375 0
5.75 0.5 0
5.875 0.5 0
5.875 0.375 0
6 0.375 0
5.875 0.5 0
6 0.5 0
5 0.5 0
5.125 0.5 0
5 0.625 0
5.125 0.625 0
5.125 0.5 0
5.25 0.5 0
5.125 0.625 0
5.25 0.625 0
5 0.625 0
5.125 0.625 0
5 0.75 0
5.125 0.75 0
5.125 0.625 0
5.25 0.625 0
5.125 0.75 0
5.25 0.75 0
5.25 0.5 0
5.375 0.5 0
5.25 0.625 0
5.375 0.625 0
5.375 0.5 0
5.5 0.5 0
5.375 0.625 0
5.5 0.625 0
5.25 0.625 0
5.375 0.625 0
5.25 0.75 0
5.375 0.75 0
5.375 0.625 0
5.5 0.625 0
5.375 0.75 0
5.5 0.75 0
5 0.75 0
5.125 0.75 0
5 0.875 0
5.125 0.875 0
5.125 0.75 0
5.25 0.75 0
5.125 0.875 0
5.25 0.875 0
5 0.875 0
5.125 0.875 0
5 1 0
5.125 1 0
5.125 0.875 0
5.25 0.875 0
5.125 1 0
5.25 1 0
5.25 0.75 0
5.375 0.75 0
5.25 0.875 0
5.375 0.875 0
5.375 0.75 0
5.5 0.75 0
5.375 0.875 0
5.5 0.875 0
5.25 0.875 0
5.375 0.875 0
5.25 1 0
5.375 1 0
5.375 0.875 0
5.5 0.875 0
5.375 1 0
5.5 1 0
5.5 0.5 0
5.625 0.5 0
5.5 0.625 0
5.625 0.625 0
5.625 0.5 0
5.75 0.5 0
5.625 0.625 0
5.75 0.625 0
5.5 0.625 0
5.625 0.625 0
5.5 0.75 0
5.625 0.75 0
5.625 0.625 0
5.75 0.625 0
5.625 0.75 0
5.75 0.75 0
5.75 0.5 0
5.875 0.5 0
5.75 0.625 0
5.875 0.625 0
5.875 0.5 0
6 0.5 0
5.875 0.625 0
6 0.625 0
5.75 0.625 0
5.875 0.625 0
5.75 0.75 0
5.875 0.75 0
5.875 0.625 0
6 0.625 0
5.875 0.75 0
6 0.75 0
5.5 0.75 0
5.625 0.75 0
5.5 0.875 0
5.625 0.875 0
5.625 0.75 0
5.75 0.75 0
5.625 0.875 0
5.75 0.875 0
5.5 0.875 0
5.625 0.875 0
5.5 1 0
5.625 1 0
5.625 0.875 0
5.75 0.875 0
5.625 1 0
5.75 1 0
5.75 0.75 0
5.875 0.75 0
5.75 0.875 0
5.875 0.875 0
5.875 0.75 0
6 0.75 0
5.875 0.875 0
6 0.875 0
5.75 0.875 0
5.875 0.875 0
5.75 1 0
5.875 1 0
5.875 0.875 0
6 0.875 0
5.875 1 0
6 1 0
4 0 0
4.125 0 0
4 0.125 0
4.125 0.125 0
4.125 0 0
4.25 0 0
4.125 0.125 0
4.25 0.125 0
4 0.125 0
4.125 0.125 0
4 0.25 0
4.125 0.25 0
4.125 0.125 0
4.25 0.125 0
4.125 0.25 0
4.25 0.25 0
4.25 0 0
4.375 0 0
4.25 0.125 0
4.375 0.125 0
4.375 0 0
4.5 0 0
4.375 0.125 0
4.5 0.125 0
4.25 0.125 0
4.375 0.125 0
4.25 0.25 0
4.375 0.25 0
4.375 0.125 0
4.5 0.125 0
4.375 0.25 0
4.5 0.25 0
4 0.25 0
4.125 0.25 0
4 0.375 0
4.125 0.375 0
4.125 0.25 0
4.25 0.25 0
4.125 0.375 0
4.25 0.375 0
4 0.375 0
4.125 0.375 0
4 0.5 0
4.125 0.5 0
4.125 0.375 0
4.25 0.375 0
4.125 0.5 0
4.25 0.5 0
4.25 0.25 0
4.375 0.25 0
4.25 0.375 0
4.375 0.375 0
4.375 0.25 0
4.5 0.25 0
4.375 0.375 0
4.5 0.375 0
4.25 0.375 0
4.375 0.375 0
4.25 0.5 0
4.375 0.5 0
4.375 0.375 0
4.5 0.375 0
4.375 0.5 0
4.5 0.5 0
4.5 0 0
4.625 0 0
4.5 0.125 0
4.625 0.125 0
4.625 0 0
4.75 0 0
4.625 0.125 0
4.75 0.125 0
4.5 0.125 0
4.625 0.125 0
4.5 0.25 0
4.625 0.25 0
4.625 0.125 0
4.75 0.125 0
4.625 0.25 0
4.75 0.25 0
4.75 0 0
4.875 0 0
4.75 0.125 0
4.875 0.125 0
4.875 0 0
5 0 0
4.875 0.125 0
5 0.125 0
4.75 0.125 0
4.875 0.125 0
4.75 0.25 0
4.875 0.25 0
4.875 0.125 0
5 0.125 0
4.875 0.25 0
5 0.25 0
4.5 0.25 0
4.625 0.25 0
4.5 0.375 0
4.625 0.375 0
4.625 0.25 0
4.75 0.25 0
4.625 0.375 0
4.75 0.375 0
4.5 0.375 0
4.625 0.375 0
4.5 0.5 0
4.625 0.5 0
4.625 0.375 0
4.75 0.375 0
4.625 0.5 0
4.75 0.5 0
4.75 0.25 0
4.875 0.25 0
4.75 0.375 0
4.875 0.375 0
4.875 0.25 0
5 0.25 0
4.875 0.375 0
5 0.375 0
4.75 0.375 0
4.875 0.375 0
4.75 0.5 0
4.875 0.5 0
4.875 0.375 0
5 0.375 0
4.875 0.5 0
5 0.5 0
4 0.5 0
4.125 0.5 0
4 0.625 0
4.125 0.625 0
4.125 0.5 0
4.25 0.5 0
4.125 0.625 0
4.25 0.625 0
4 0.625 0
4.125 0.625 0
4 0.75 0
4.125 0.75 0
4.125 0.625 0
4.25 0.625 0
4.125 0.75 0
4.25 0.75 0
4.25 0.5 0
4.375 0.5 0
4.25 0.625 0
4.375 0.625 0
4.375 0.5 0
4.5 0.5 0
4.375 0.625 0
4.5 0.625 0
4.25 0.625 0
4.375 0.625 0
4.25 0.75 0
4.375 0.75 0
4.375 0.625 0
4.5 0.625 0
4.375 0.75 0
4.5 0.75 0
4 0.75 0
4.125 0.75 0
4 0.875 0
4.125 0.875 0
4.125 0.75 0
4.25 0.75 0
4.125 0.875 0
4.25 0.875 0
4 0.875 0
4.125 0.875 0
4 1 0
4.125 1 0
4.125 0.875 0
4.25 0.875 0
4.125 1 0
4.25 1 0
4.25 0.75 0
4.375 0.75 0
4.25 0.875 0
4.375 0.875 0
4.375 0.75 0
4.5 0.75 0
4.375 0.875 0
4.5 0.875 0
4.25 0.875 0
4.375 0.875 0
4.25 1 0
4.375 1 0
4.375 0.875 0
4.5 0.875 0
4.375 1 0
4.5 1 0
4.5 0.5 0
4.625 0.5 0
4.5 0.625 0
4.625 0.625 0
4.625 0.5 0
4.75 0.5 0
4.625 0.625 0
4.75 0.625 0
4.5 0.625 0
4.625 0.625 0
4.5 0.75 0
4.625 0.75 0
4.625 0.625 0
4.75 0.625 0
4.625 0.75 0
4.75 0.75 0
4.75 0.5 0
4.875 0.5 0
4.75 0.625 0
4.875 0.625 0
4.875 0.5 0
5 0.5 0
4.875 0.625 0
5 0.625 0
4.75 0.625 0
4.875 0.625 0
4.75 0.75 0
4.875 0.75 0
4.875 0.625 0
5 0.625 0
4.875 0.75 0
5 0.75 0
4.5 0.75 0
4.625 0.75 0
4.5 0.875 0
4.625 0.875 0
4.625 0.75 0
4.75 0.75 0
4.625 0.875 0
4.75 0.875 0
4.5 0.875 0
4.625 0.875 0
4.5 1 0
4.625 1 0
4.625 0.875 0
4.75 0.875 0
4.625 1 0
4.75 1 0
4.75 0.75 0
4.875 0.75 0
4.75 0.875 0
4.875 0.875 0
4.875 0.75 0
5 0.75 0
4.875 0.875 0
5 0.875 0
4.75 0.875 0
4.875 0.875 0
4.75 1 0
4.875 1 0
4.875 0.875 0
5 0.875 0
4.875 1 0
5 1 0
3 0 0
3.125 0 0
3 0.125 0
3.125 0.125 0
3.125 0 0
3.25 0 0
3.125 0.125 0
3.25 0.125 0
3 0.125 0
3.125 0.125 0
3 0.25 0
3.125 0.25 0
3.125 0.125 0
3.25 0.125 0
3.125 0.25 0
3.25 0.25 0
3.25 0 0
3.375 0 0
3.25 0.125 0
3.375 0.125 0
3.375 0 0
3.5 0 0
3.375 0.125 0
3.5 0.125 0
3.25 0.125 0
3.375 0.125 0
3.25 0.25 0
3.375 0.25 0
3.375 0.125 0
3.5 0.125 0
3.375 0.25 0
3.5 0.25 0
3 0.25 0
3.125 0.25 0
3 0.375 0
3.125 0.375 0
3.125 0.25 0
3.25 0.25 0
3.125 0.375 0
3.25 0.375 0
3 0.375 0
3.125 0.375 0
3 0.5 0
3.125 0.5 0
3.125 0.375 0
3.25 0.375 0
3.125 0.5 0
3.25 0.5 0
3.25 0.25 0
3.375 0.25 0
3.25 0.375 0
3.375 0.375 0
3.375 0.25 0
3.5 0.25 0
3.375 0.375 0
3.5 0.375 0
3.25 0.375 0
3.375 0.375 0
3.25 0.5 0
3.375 0.5 0
3.375 0.375 0
3.5 0.375 0
3.375 0.5 0
3.5 0.5 0
3.5 0 0
3.625 0 0
3.5 0.125 0
3.625 0.125 0
3.625 0 0
3.75 0 0
3.625 0.125 0
3.75 0.125 0
3.5 0.125 0
3.625 0.125 0
3.5 0.25 0
3.625 0.25 0
3.625 0.125 0
3.75 0.125 0
3.625 0.25 0
3.75 0.25 0
3.75 0 0
3.875 0 0
3.75 0.125 0
3.875 0.125 0
3.875 0 0
4 0 0
3.875 0.125 0
4 0.125 0
3.75 0.125 0
3.875 0.125 0
3.75 0.25 0
3.875 0.25 0
3.875 0.125 0
4 0.125 0
3.875 0.25 0
4 0.25 0
3.5 0.25 0
3.625 0.25 0
3.5 0.375 0
3.625 0.375 0
3.625 0.25 0
3.75 0.25 0
3.625 0.375 0
3.75 0.375 0
3.5 0.375 0
3.625 0.375 0
3.5 0.5 0
3.625 0.5 0
3.625 0.375 0
3.75 0.375 0
3.625 0.5 0
3.75 0.5 0
3.75 0.25 0
3.875 0.25 0
3.75 0.375 0
3.875 0.375 0
3.875 0.25 0
4 0.25 0
3.875 0.375 0
4 0.375 0
3.75 0.375 0
3.875 0.375 0
3.75 0.5 0
3.875 0.5 0
3.875 0.375 0
4 0.375 0
3.875 0.5 0
4 0.5 0
3 0.5 0
3.125 0.5 0
3 0.625 0
3.125 0.625 0
3.125 0.5 0
3.25 0.5 0
3.125 0.625 0
3.25 0.625 0
3 0.625 0
3.125 0.625 0
3 0.75 0
3.125 0.75 0
3.125 0.625 0
3.25 0.625 0
3.125 0.75 0
3.25 0.75 0
3.25 0.5 0
3.375 0.5 0
3.25 0.625 0
3.375 0.625 0
3.375 0.5 0
3.5 0.5 0
3.375 0.625 0
3.5 0.625 0
3.25 0.625 0
3.375 0.625 0
3.25 0.75 0
3.375 0.75 0
3.375 0.625 0
3.5 0.625 0
3.375 0.75 0
3.5 0.75 0
3 0.75 0
3.125 0.75 0
3 0.875 0
3.125 0.875 0
3.125 0.75 0
3.25 0.75 0
3.125 0.875 0
3.25 0.875 0
3 0.875 0
3.125 0.875 0
3 1 0
3.125 1 0
3.125 0.875 0
3.25 0.875 0
3.125 1 0
3.25 1 0
3.25 0.75 0
3.375 0.75 0
3.25 0.875 0
3.375 0.875 0
3.375 0.75 0
3.5 0.75 0
3.375 0.875 0
3.5 0.875 0
3.25 0.875 0
3.375 0.875 0
3.25 1 0
3.375 1 0
3.375 0.875 0
3.5 0.875 0
3.375 1 0
3.5 1 0
3.5 0.5 0
3.625 0.5 0
3.5 0.625 0
3.625 0.625 0
3.625 0.5 0
3.75 0.5 0
3.625 0.625 0
3.75 0.625 0
3.5 0.625 0
3.625 0.625 0
3.5 0.75 0
3.625 0.75 0
3.625 0.625 0
3.75 0.625 0
3.625 0.75 0
3.75 0.75 0
3.75 0.5 0
3.875 0.5 0
3.75 0.625 0
3.875 0.625 0
3.875 0.5 0
4 0.5 0
3.875 0.625 0
4 0.625 0
3.75 0.625 0
3.875 0.625 0
3.75 0.75 0
3.875 0.75 0
3.875 0.625 0
4 0.625 0
3.875 0.75 0
4 0.75 0
3.5 0.75 0
3.625 0.75 0
3.5 0.875 0
3.625 0.875 0
3.625 0.75 0
3.75 0.75 0
3.625 0.875 0
3.75 0.875 0
3.5 0.875 0
3.625 0.875 0
3.5 1 0
3.625 1 0
3.625 0.875 0
3.75 0.875 0
3.625 1 0
3.75 1 0
3.75 0.75 0
3.875 0.75 0
3.75 0.875 0
3.875 0.875 0
3.875 0.75 0
4 0.75 0
3.875 0.875 0
4 0.875 0
3.75 0.875 0
3.875 0.875 0
3.75 1 0
3.875 1 0
3.875 0.875 0
4 0.875 0
3.875 1 0
4 1 0
2 0 0
2.125 0 0
2 0.125 0
2.125 0.125 0
2.125 0 0
2.25 0 0
2.125 0.125 0
2.25 0.125 0
2 0.125 0
2.125 0.125 0
2 0.25 0
2.125 0.25 0
2.125 0.125 0
2.25 0.125 0
2.125 0.25 0
2.25 0.25 0
2.25 0 0
2.375 0 0
2.25 0.125 0
2.375 0.125 0
2.375 0 0
2.5 0 0
2.375 0.125 0
2.5 0.125 0
2.25 0.125 0
2.375 0.125 0
2.25 0.25 0
2.375 0.25 0
2.375 0.125 0
2.5 0.125 0
2.375 0.25 0
2.5 0.25 0
2 0.25 0
2.125 0.25 0
2 0.375 0
2.125 0.375 0
2.125 0.25 0
2.25 0.25 0
2.125 0.375 0
2.25 0.375 0
2 0.375 0
2.125 0.375 0
2 0.5 0
2.125 0.5 0
2.125 0.375 0
2.25 0.375 0
2.125 0.5 0
2.25 0.5 0
2.25 0.25 0
2.375 0.25 0
2.25 0.375 0
2.375 0.375 0
2.375 0.25 0
[...]
POINT_DATA 1536
VECTORS displacements double
39.3472 -46.1255 0
40.0816 -41.2359 0
34.6341 -46.3542 0
35.2202 -41.4405 0
40.0816 -41.2359 0
40.8227 -36.1714 0
35.2202 -41.4405 0
35.7451 -36.3892 0
34.6341 -46.3542 0
35.2202 -41.4405 0
30.5559 -46.5402 0
30.9244 -41.5882 0
35.2202 -41.4405 0
35.7451 -36.3892 0
30.9244 -41.5882 0
31.2757 -36.5175 0
40.8227 -36.1714 0
41.503 -30.9221 0
35.7451 -36.3892 0
36.2841 -31.1045 0
41.503 -30.9221 0
42.2079 -25.5006 0
36.2841 -31.1045 0
36.7611 -25.7095 0
35.7451 -36.3892 0
36.2841 -31.1045 0
31.2757 -36.5175 0
31.6209 -31.2319 0
36.2841 -31.1045 0
36.7611 -25.7095 0
31.6209 -31.2319 0
31.9101 -25.7974 0
30.5559 -46.5402 0
30.9244 -41.5882 0
26.5678 -46.5934 0
26.7938 -41.7207 0
30.9244 -41.5882 0
31.2757 -36.5175 0
26.7938 -41.7207 0
26.9334 -36.5843 0
26.5678 -46.5934 0
26.7938 -41.7207 0
22.7118 -46.6539 0
22.6983 -41.6878 0
26.7938 -41.7207 0
26.9334 -36.5843 0
22.6983 -41.6878 0
22.7277 -36.6223 0
31.2757 -36.5175 0
31.6209 -31.2319 0
26.9334 -36.5843 0
27.0623 -31.2683 0
31.6209 -31.2319 0
31.9101 -25.7974 0
27.0623 -31.2683 0
27.2085 -25.8083 0
26.9334 -36.5843 0
27.0623 -31.2683 0
22.7277 -36.6223 0
22.6547 -31.2269 0
27.0623 -31.2683 0
27.2085 -25.8083 0
22.6547 -31.2269 0
22.6118 -25.769 0
42.2079 -25.5006 0
42.8575 -19.9078 0
36.7611 -25.7095 0
37.2587 -20.0582 0
42.8575 -19.9078 0
43.634 -14.0629 0
37.2587 -20.0582 0
37.6171 -14.3031 0
36.7611 -25.7095 0
37.2587 -20.0582 0
31.9101 -25.7974 0
32.2008 -20.1349 0
37.2587 -20.0582 0
37.6171 -14.3031 0
32.2008 -20.1349 0
32.4079 -14.3333 0
43.634 -14.0629 0
44.4504 -7.91381 0
37.6171 -14.3031 0
37.8425 -7.82101 0
44.4504 -7.91381 0
44.8787 0 0
37.8425 -7.82101 0
38.0557 -1.43301 0
37.6171 -14.3031 0
37.8425 -7.82101 0
32.4079 -14.3333 0
32.4261 -8.14022 0
37.8425 -7.82101 0
38.0557 -1.43301 0
32.4261 -8.14022 0
32.5469 -2.32705 0
31.9101 -25.7974 0
32.2008 -20.1349 0
27.2085 -25.8083 0
27.2988 -20.1877 0
32.2008 -20.1349 0
32.4079 -14.3333 0
27.2988 -20.1877 0
27.265 -14.398 0
27.2085 -25.8083 0
27.2988 -20.1877 0
22.6118 -25.769 0
22.5115 -20.2313 0
27.2988 -20.1877 0
27.265 -14.398 0
22.5115 -20.2313 0
22.3645 -14.599 0
32.4079 -14.3333 0
32.4261 -8.14022 0
27.265 -14.398 0
27.2543 -8.60767 0
32.4261 -8.14022 0
32.5469 -2.32705 0
27.2543 -8.60767 0
27.2847 -2.85388 0
27.265 -14.398 0
27.2543 -8.60767 0
22.3645 -14.599 0
22.2791 -8.92811 0
27.2543 -8.60767 0
27.2847 -2.85388 0
22.2791 -8.92811 0
22.3633 -3.52325 0
22.7118 -46.6539 0
22.6983 -41.6878 0
18.8248 -46.6049 0
18.644 -41.6663 0
22.6983 -41.6878 0
22.7277 -36.6223 0
18.644 -41.6663 0
18.4004 -36.4686 0
18.8248 -46.6049 0
18.644 -41.6663 0
14.819 -46.4445 0
14.4848 -41.5146 0
18.644 -41.6663 0
18.4004 -36.4686 0
14.4848 -41.5146 0
14.0977 -36.3656 0
22.7277 -36.6223 0
22.6547 -31.2269 0
18.4004 -36.4686 0
18.252 -31.1792 0
22.6547 -31.2269 0
22.6118 -25.769 0
18.252 -31.1792 0
18.0188 -25.7718 0
18.4004 -36.4686 0
18.252 -31.1792 0
14.0977 -36.3656 0
13.6845 -31.1155 0
18.252 -31.1792 0
18.0188 -25.7718 0
13.6845 -31.1155 0
13.3184 -25.7527 0
14.819 -46.4445 0
14.4848 -41.5146 0
10.6227 -46.2264 0
10.0249 -41.3208 0
14.4848 -41.5146 0
14.0977 -36.3656 0
10.0249 -41.3208 0
9.46938 -36.2539 0
10.6227 -46.2264 0
10.0249 -41.3208 0
6.01334 -45.9998 0
5.35112 -41.1051 0
10.0249 -41.3208 0
9.46938 -36.2539 0
5.35112 -41.1051 0
4.8726 -36.1823 0
14.0977 -36.3656 0
13.6845 -31.1155 0
9.46938 -36.2539 0
9.03816 -31.031 0
13.6845 -31.1155 0
13.3184 -25.7527 0
9.03816 -31.031 0
8.71623 -25.7871 0
9.46938 -36.2539 0
9.03816 -31.031 0
4.8726 -36.1823 0
4.3198 -30.9837 0
9.03816 -31.031 0
8.71623 -25.7871 0
4.3198 -30.9837 0
3.72146 -25.6633 0
22.6118 -25.769 0
22.5115 -20.2313 0
18.0188 -25.7718 0
17.7518 -20.2896 0
22.5115 -20.2313 0
22.3645 -14.599 0
17.7518 -20.2896 0
17.5974 -14.7751 0
18.0188 -25.7718 0
17.7518 -20.2896 0
13.3184 -25.7527 0
13.0998 -20.3705 0
17.7518 -20.2896 0
17.5974 -14.7751 0
13.0998 -20.3705 0
12.8974 -14.8875 0
22.3645 -14.599 0
22.2791 -8.92811 0
17.5974 -14.7751 0
17.5253 -9.2407 0
22.2791 -8.92811 0
22.3633 -3.52325 0
17.5253 -9.2407 0
17.5966 -4.06736 0
17.5974 -14.7751 0
17.5253 -9.2407 0
12.8974 -14.8875 0
12.8108 -9.47764 0
17.5253 -9.2407 0
17.5966 -4.06736 0
12.8108 -9.47764 0
12.8395 -4.38661 0
13.3184 -25.7527 0
13.0998 -20.3705 0
8.71623 -25.7871 0
8.35467 -20.3598 0
13.0998 -20.3705 0
12.8974 -14.8875 0
8.35467 -20.3598 0
8.09665 -14.9189 0
8.71623 -25.7871 0
8.35467 -20.3598 0
3.72146 -25.6633 0
3.26714 -20.2683 0
8.35467 -20.3598 0
8.09665 -14.9189 0
3.26714 -20.2683 0
2.9915 -14.8797 0
12.8974 -14.8875 0
12.8108 -9.47764 0
8.09665 -14.9189 0
7.97141 -9.58991 0
12.8108 -9.47764 0
12.8395 -4.38661 0
7.97141 -9.58991 0
7.94979 -4.48909 0
8.09665 -14.9189 0
7.97141 -9.58991 0
2.9915 -14.8797 0
2.89964 -9.60817 0
7.97141 -9.58991 0
7.94979 -4.48909 0
2.89964 -9.60817 0
2.89387 -4.49554 0
32.1428 -77.628 0
33.1743 -74.5369 0
29.3176 -77.9234 0
30.0508 -74.8294 0
33.1743 -74.5369 0
34.1431 -71.172 0
30.0508 -74.8294 0
30.7862 -71.4469 0
29.3176 -77.9234 0
30.0508 -74.8294 0
26.9745 -78.127 0
27.404 -75.0131 0
30.0508 -74.8294 0
30.7862 -71.4469 0
27.404 -75.0131 0
27.8523 -71.6363 0
34.1431 -71.172 0
35.0901 -67.5758 0
30.7862 -71.4469 0
31.4831 -67.8325 0
35.0901 -67.5758 0
36.032 -63.7314 0
31.4831 -67.8325 0
32.1198 -63.9968 0
30.7862 -71.4469 0
31.4831 -67.8325 0
27.8523 -71.6363 0
28.3184 -67.9839 0
31.4831 -67.8325 0
32.1198 -63.9968 0
28.3184 -67.9839 0
28.7981 -64.1365 0
26.9745 -78.127 0
27.404 -75.0131 0
24.8441 -78.21 0
24.9887 -75.096 0
27.404 -75.0131 0
27.8523 -71.6363 0
24.9887 -75.096 0
25.1609 -71.7 0
24.8441 -78.21 0
24.9887 -75.096 0
22.7487 -78.1682 0
22.634 -75.0548 0
24.9887 -75.096 0
25.1609 -71.7 0
22.634 -75.0548 0
22.5805 -71.6586 0
27.8523 -71.6363 0
28.3184 -67.9839 0
25.1609 -71.7 0
25.3849 -68.0627 0
28.3184 -67.9839 0
28.7981 -64.1365 0
25.3849 -68.0627 0
25.6018 -64.2001 0
25.1609 -71.7 0
25.3849 -68.0627 0
22.5805 -71.6586 0
22.5505 -68.0502 0
25.3849 -68.0627 0
25.6018 -64.2001 0
22.5505 -68.0502 0
22.5719 -64.1823 0
36.032 -63.7314 0
36.9112 -59.6183 0
32.1198 -63.9968 0
32.781 -59.87 0
36.9112 -59.6183 0
37.7355 -55.3121 0
32.781 -59.87 0
33.4419 -55.5507 0
32.1198 -63.9968 0
32.781 -59.87 0
28.7981 -64.1365 0
29.2545 -60.0706 0
32.781 -59.87 0
33.4419 -55.5507 0
29.2545 -60.0706 0
29.7035 -55.7375 0
37.7355 -55.3121 0
38.5545 -50.8283 0
33.4419 -55.5507 0
34.0529 -51.063 0
38.5545 -50.8283 0
39.3472 -46.1255 0
34.0529 -51.063 0
34.6341 -46.3542 0
33.4419 -55.5507 0
34.0529 -51.063 0
29.7035 -55.7375 0
30.1252 -51.2174 0
34.0529 -51.063 0
34.6341 -46.3542 0
30.1252 -51.2174 0
30.5559 -46.5402 0
28.7981 -64.1365 0
29.2545 -60.0706 0
25.6018 -64.2001 0
25.8562 -60.1344 0
29.2545 -60.0706 0
29.7035 -55.7375 0
25.8562 -60.1344 0
26.1168 -55.8617 0
25.6018 -64.2001 0
25.8562 -60.1344 0
22.5719 -64.1823 0
22.5445 -60.1232 0
25.8562 -60.1344 0
26.1168 -55.8617 0
22.5445 -60.1232 0
22.5937 -55.8497 0
29.7035 -55.7375 0
30.1252 -51.2174 0
26.1168 -55.8617 0
26.3558 -51.357 0
30.1252 -51.2174 0
30.5559 -46.5402 0
26.3558 -51.357 0
26.5678 -46.5934 0
26.1168 -55.8617 0
26.3558 -51.357 0
22.5937 -55.8497 0
22.6749 -51.3878 0
26.3558 -51.357 0
26.5678 -46.5934 0
22.6749 -51.3878 0
22.7118 -46.6539 0
22.7487 -78.1682 0
22.634 -75.0548 0
20.6179 -78.0106 0
20.2721 -74.8943 0
22.634 -75.0548 0
22.5805 -71.6586 0
20.2721 -74.8943 0
19.9873 -71.545 0
20.6179 -78.0106 0
20.2721 -74.8943 0
18.3975 -77.7651 0
17.8671 -74.6816 0
20.2721 -74.8943 0
19.9873 -71.545 0
17.8671 -74.6816 0
17.3607 -71.3551 0
22.5805 -71.6586 0
22.5505 -68.0502 0
19.9873 -71.545 0
19.7516 -67.945 0
22.5505 -68.0502 0
22.5719 -64.1823 0
19.7516 -67.945 0
19.5129 -64.1096 0
19.9873 -71.545 0
19.7516 -67.945 0
17.3607 -71.3551 0
16.8779 -67.7881 0
19.7516 -67.945 0
19.5129 -64.1096 0
16.8779 -67.7881 0
16.4424 -63.9545 0
18.3975 -77.7651 0
17.8671 -74.6816 0
16.0475 -77.4969 0
15.2707 -74.4298 0
17.8671 -74.6816 0
17.3607 -71.3551 0
15.2707 -74.4298 0
14.5415 -71.1285 0
16.0475 -77.4969 0
15.2707 -74.4298 0
13.1596 -77.1953 0
12.1675 -74.1406 0
15.2707 -74.4298 0
14.5415 -71.1285 0
12.1675 -74.1406 0
11.1838 -70.8423 0
17.3607 -71.3551 0
16.8779 -67.7881 0
14.5415 -71.1285 0
13.8201 -67.562 0
16.8779 -67.7881 0
16.4424 -63.9545 0
13.8201 -67.562 0
13.1364 -63.7669 0
14.5415 -71.1285 0
13.8201 -67.562 0
11.1838 -70.8423 0
10.2406 -67.2909 0
13.8201 -67.562 0
13.1364 -63.7669 0
10.2406 -67.2909 0
9.3191 -63.5037 0
22.5719 -64.1823 0
22.5445 -60.1232 0
19.5129 -64.1096 0
19.3468 -60.0401 0
22.5445 -60.1232 0
22.5937 -55.8497 0
19.3468 -60.0401 0
19.1269 -55.7725 0
19.5129 -64.1096 0
19.3468 -60.0401 0
16.4424 -63.9545 0
15.9972 -59.9167 0
19.3468 -60.0401 0
19.1269 -55.7725 0
15.9972 -59.9167 0
15.5951 -55.6335 0
22.5937 -55.8497 0
22.6749 -51.3878 0
19.1269 -55.7725 0
18.9453 -51.2956 0
22.6749 -51.3878 0
22.7118 -46.6539 0
18.9453 -51.2956 0
18.8248 -46.6049 0
19.1269 -55.7725 0
18.9453 -51.2956 0
15.5951 -55.6335 0
15.1945 -51.1329 0
18.9453 -51.2956 0
18.8248 -46.6049 0
15.1945 -51.1329 0
14.819 -46.4445 0
16.4424 -63.9545 0
15.9972 -59.9167 0
13.1364 -63.7669 0
12.4852 -59.7224 0
15.9972 -59.9167 0
15.5951 -55.6335 0
12.4852 -59.7224 0
11.8374 -55.4359 0
13.1364 -63.7669 0
12.4852 -59.7224 0
9.3191 -63.5037 0
8.42435 -59.4661 0
12.4852 -59.7224 0
11.8374 -55.4359 0
8.42435 -59.4661 0
7.58269 -55.1945 0
15.5951 -55.6335 0
15.1945 -51.1329 0
11.8374 -55.4359 0
11.2282 -50.9437 0
15.1945 -51.1329 0
14.819 -46.4445 0
11.2282 -50.9437 0
10.6227 -46.2264 0
11.8374 -55.4359 0
11.2282 -50.9437 0
7.58269 -55.1945 0
6.76638 -50.7057 0
11.2282 -50.9437 0
10.6227 -46.2264 0
6.76638 -50.7057 0
6.01334 -45.9998 0
22.4393 -89.471 0
23.7339 -89.2859 0
22.4393 -89.8483 0
23.3842 -89.6617 0
23.7339 -89.2859 0
25.0171 -88.736 0
23.3842 -89.6617 0
24.3264 -89.1077 0
22.4393 -89.8483 0
23.3842 -89.6617 0
22.4393 -90.4399 0
23.2908 -90.2206 0
23.3842 -89.6617 0
24.3264 -89.1077 0
23.2908 -90.2206 0
24.0687 -89.56 0
25.0171 -88.736 0
26.2803 -87.8359 0
24.3264 -89.1077 0
25.2608 -88.2002 0
26.2803 -87.8359 0
27.5305 -86.5766 0
25.2608 -88.2002 0
26.1468 -86.928 0
24.3264 -89.1077 0
25.2608 -88.2002 0
24.0687 -89.56 0
24.7188 -88.5479 0
25.2608 -88.2002 0
26.1468 -86.928 0
24.7188 -88.5479 0
25.183 -87.2239 0
22.4393 -90.4399 0
23.2908 -90.2206 0
22.4393 -91.0634 0
23.0858 -90.8238 0
23.2908 -90.2206 0
24.0687 -89.56 0
23.0858 -90.8238 0
23.6593 -90.1306 0
22.4393 -91.0634 0
23.0858 -90.8238 0
22.4393 -91.6695 0
22.8591 -91.4171 0
23.0858 -90.8238 0
23.6593 -90.1306 0
22.8591 -91.4171 0
23.1879 -90.6688 0
24.0687 -89.56 0
24.7188 -88.5479 0
23.6593 -90.1306 0
24.0747 -88.9504 0
24.7188 -88.5479 0
25.183 -87.2239 0
24.0747 -88.9504 0
24.3456 -87.538 0
23.6593 -90.1306 0
24.0747 -88.9504 0
23.1879 -90.6688 0
23.3399 -89.3457 0
24.0747 -88.9504 0
24.3456 -87.538 0
23.3399 -89.3457 0
23.3513 -87.7422 0
27.5305 -86.5766 0
28.7654 -84.9043 0
26.1468 -86.928 0
26.9665 -85.2492 0
28.7654 -84.9043 0
29.9331 -82.8354 0
26.9665 -85.2492 0
27.7953 -83.1539 0
26.1468 -86.928 0
26.9665 -85.2492 0
25.183 -87.2239 0
25.6664 -85.478 0
26.9665 -85.2492 0
27.7953 -83.1539 0
25.6664 -85.478 0
26.1235 -83.3884 0
29.9331 -82.8354 0
31.069 -80.4095 0
27.7953 -83.1539 0
28.5569 -80.726 0
31.069 -80.4095 0
32.1428 -77.628 0
28.5569 -80.726 0
29.3176 -77.9234 0
27.7953 -83.1539 0
28.5569 -80.726 0
26.1235 -83.3884 0
26.5292 -80.9048 0
28.5569 -80.726 0
29.3176 -77.9234 0
26.5292 -80.9048 0
26.9745 -78.127 0
25.183 -87.2239 0
25.6664 -85.478 0
24.3456 -87.538 0
24.5065 -85.6666 0
25.6664 -85.478 0
26.1235 -83.3884 0
24.5065 -85.6666 0
24.6118 -83.5069 0
24.3456 -87.538 0
24.5065 -85.6666 0
23.3513 -87.7422 0
23.2624 -85.783 0
24.5065 -85.6666 0
24.6118 -83.5069 0
23.2624 -85.783 0
23.0897 -83.5129 0
26.1235 -83.3884 0
26.5292 -80.9048 0
24.6118 -83.5069 0
24.7382 -80.9878 0
26.5292 -80.9048 0
26.9745 -78.127 0
24.7382 -80.9878 0
24.8441 -78.21 0
24.6118 -83.5069 0
24.7382 -80.9878 0
23.0897 -83.5129 0
22.919 -80.998 0
24.7382 -80.9878 0
24.8441 -78.21 0
22.919 -80.998 0
22.7487 -78.1682 0
22.4393 -91.6695 0
22.8591 -91.4171 0
22.4393 -92.2898 0
22.6065 -91.9863 0
22.8591 -91.4171 0
23.1879 -90.6688 0
22.6065 -91.9863 0
22.6761 -91.152 0
22.4393 -92.2898 0
22.6065 -91.9863 0
22.4393 -92.8531 0
22.2203 -92.5681 0
22.6065 -91.9863 0
22.6761 -91.152 0
22.2203 -92.5681 0
21.9313 -91.3529 0
23.1879 -90.6688 0
23.3399 -89.3457 0
22.6761 -91.152 0
22.508 -89.6148 0
23.3399 -89.3457 0
23.3513 -87.7422 0
22.508 -89.6148 0
22.243 -87.8236 0
22.6761 -91.152 0
22.508 -89.6148 0
21.9313 -91.3529 0
21.5065 -89.7056 0
22.508 -89.6148 0
22.243 -87.8236 0
21.5065 -89.7056 0
20.9387 -87.7645 0
22.4393 -92.8531 0
22.2203 -92.5681 0
22.4393 -93.4759 0
21.8039 -92.7671 0
22.2203 -92.5681 0
21.9313 -91.3529 0
21.8039 -92.7671 0
21.056 -91.3343 0
22.4393 -93.4759 0
21.8039 -92.7671 0
22.4393 -93.4193 0
20.9305 -92.6179 0
21.8039 -92.7671 0
21.056 -91.3343 0
20.9305 -92.6179 0
19.6306 -91.0194 0
21.9313 -91.3529 0
21.5065 -89.7056 0
21.056 -91.3343 0
20.2425 -89.6129 0
21.5065 -89.7056 0
20.9387 -87.7645 0
20.2425 -89.6129 0
19.3824 -87.6121 0
21.056 -91.3343 0
20.2425 -89.6129 0
19.6306 -91.0194 0
18.4406 -89.2872 0
20.2425 -89.6129 0
19.3824 -87.6121 0
18.4406 -89.2872 0
17.3269 -87.2885 0
23.3513 -87.7422 0
23.2624 -85.783 0
22.243 -87.8236 0
21.8363 -85.7593 0
23.2624 -85.783 0
23.0897 -83.5129 0
21.8363 -85.7593 0
21.4283 -83.4514 0
22.243 -87.8236 0
21.8363 -85.7593 0
20.9387 -87.7645 0
20.3385 -85.6536 0
21.8363 -85.7593 0
21.4283 -83.4514 0
20.3385 -85.6536 0
19.6482 -83.2657 0
23.0897 -83.5129 0
22.919 -80.998 0
21.4283 -83.4514 0
20.9951 -80.8838 0
22.919 -80.998 0
22.7487 -78.1682 0
20.9951 -80.8838 0
20.6179 -78.0106 0
21.4283 -83.4514 0
20.9951 -80.8838 0
19.6482 -83.2657 0
18.9801 -80.567 0
20.9951 -80.8838 0
20.6179 -78.0106 0
18.9801 -80.567 0
18.3975 -77.7651 0
20.9387 -87.7645 0
20.3385 -85.6536 0
19.3824 -87.6121 0
18.5248 -85.3869 0
20.3385 -85.6536 0
19.6482 -83.2657 0
18.5248 -85.3869 0
17.6745 -82.956 0
19.3824 -87.6121 0
18.5248 -85.3869 0
17.3269 -87.2885 0
16.2491 -85.0681 0
18.5248 -85.3869 0
17.6745 -82.956 0
16.2491 -85.0681 0
15.2014 -82.6429 0
19.6482 -83.2657 0
18.9801 -80.567 0
17.6745 -82.956 0
16.8428 -80.3282 0
18.9801 -80.567 0
18.3975 -77.7651 0
16.8428 -80.3282 0
16.0475 -77.4969 0
17.6745 -82.956 0
16.8428 -80.3282 0
15.2014 -82.6429 0
14.176 -80.0236 0
16.8428 -80.3282 0
16.0475 -77.4969 0
14.176 -80.0236 0
13.1596 -77.1953 0
12.7359 -77.628 0
13.8097 -80.4095 0
15.5611 -77.9234 0
16.3218 -80.726 0
13.8097 -80.4095 0
14.9456 -82.8354 0
16.3218 -80.726 0
17.0834 -83.1539 0
15.5611 -77.9234 0
16.3218 -80.726 0
17.9042 -78.127 0
18.3495 -80.9048 0
16.3218 -80.726 0
17.0834 -83.1539 0
18.3495 -80.9048 0
18.7552 -83.3884 0
14.9456 -82.8354 0
16.1133 -84.9043 0
17.0834 -83.1539 0
17.9122 -85.2492 0
16.1133 -84.9043 0
17.3482 -86.5766 0
17.9122 -85.2492 0
18.7319 -86.928 0
17.0834 -83.1539 0
17.9122 -85.2492 0
18.7552 -83.3884 0
19.2123 -85.478 0
17.9122 -85.2492 0
18.7319 -86.928 0
19.2123 -85.478 0
19.6957 -87.2239 0
17.9042 -78.127 0
18.3495 -80.9048 0
20.0346 -78.21 0
20.1405 -80.9878 0
18.3495 -80.9048 0
18.7552 -83.3884 0
20.1405 -80.9878 0
20.2669 -83.5069 0
20.0346 -78.21 0
20.1405 -80.9878 0
22.13 -78.1682 0
21.9597 -80.998 0
20.1405 -80.9878 0
20.2669 -83.5069 0
21.9597 -80.998 0
21.789 -83.5129 0
18.7552 -83.3884 0
19.2123 -85.478 0
20.2669 -83.5069 0
20.3722 -85.6666 0
19.2123 -85.478 0
19.6957 -87.2239 0
20.3722 -85.6666 0
20.5331 -87.538 0
20.2669 -83.5069 0
20.3722 -85.6666 0
21.789 -83.5129 0
21.6163 -85.783 0
20.3722 -85.6666 0
20.5331 -87.538 0
21.6163 -85.783 0
21.5274 -87.7422 0
17.3482 -86.5766 0
18.5984 -87.8359 0
18.7319 -86.928 0
19.6179 -88.2002 0
18.5984 -87.8359 0
19.8616 -88.736 0
19.6179 -88.2002 0
20.5523 -89.1077 0
18.7319 -86.928 0
19.6179 -88.2002 0
19.6957 -87.2239 0
20.1599 -88.5479 0
19.6179 -88.2002 0
20.5523 -89.1077 0
20.1599 -88.5479 0
20.81 -89.56 0
19.8616 -88.736 0
21.1448 -89.2859 0
20.5523 -89.1077 0
21.4945 -89.6617 0
21.1448 -89.2859 0
22.4393 -89.471 0
21.4945 -89.6617 0
22.4393 -89.8483 0
20.5523 -89.1077 0
21.4945 -89.6617 0
20.81 -89.56 0
21.5879 -90.2206 0
21.4945 -89.6617 0
22.4393 -89.8483 0
21.5879 -90.2206 0
22.4393 -90.4399 0
19.6957 -87.2239 0
20.1599 -88.5479 0
20.5331 -87.538 0
20.804 -88.9504 0
20.1599 -88.5479 0
20.81 -89.56 0
20.804 -88.9504 0
21.2194 -90.1306 0
20.5331 -87.538 0
20.804 -88.9504 0
21.5274 -87.7422 0
21.5388 -89.3457 0
20.804 -88.9504 0
21.2194 -90.1306 0
21.5388 -89.3457 0
21.6908 -90.6688 0
20.81 -89.56 0
21.5879 -90.2206 0
21.2194 -90.1306 0
21.7929 -90.8238 0
21.5879 -90.2206 0
22.4393 -90.4399 0
21.7929 -90.8238 0
22.4393 -91.0634 0
21.2194 -90.1306 0
21.7929 -90.8238 0
21.6908 -90.6688 0
22.0196 -91.4171 0
21.7929 -90.8238 0
22.4393 -91.0634 0
22.0196 -91.4171 0
22.4393 -91.6695 0
22.13 -78.1682 0
21.9597 -80.998 0
24.2608 -78.0106 0
23.8836 -80.8838 0
21.9597 -80.998 0
21.789 -83.5129 0
23.8836 -80.8838 0
23.4504 -83.4514 0
24.2608 -78.0106 0
23.8836 -80.8838 0
26.4812 -77.7651 0
25.8986 -80.567 0
23.8836 -80.8838 0
23.4504 -83.4514 0
25.8986 -80.567 0
25.2305 -83.2657 0
21.789 -83.5129 0
21.6163 -85.783 0
23.4504 -83.4514 0
23.0424 -85.7593 0
21.6163 -85.783 0
21.5274 -87.7422 0
23.0424 -85.7593 0
22.6357 -87.8236 0
23.4504 -83.4514 0
23.0424 -85.7593 0
25.2305 -83.2657 0
24.5402 -85.6536 0
23.0424 -85.7593 0
22.6357 -87.8236 0
24.5402 -85.6536 0
23.94 -87.7645 0
26.4812 -77.7651 0
25.8986 -80.567 0
28.8312 -77.4969 0
28.0359 -80.3282 0
25.8986 -80.567 0
25.2305 -83.2657 0
28.0359 -80.3282 0
27.2042 -82.956 0
28.8312 -77.4969 0
28.0359 -80.3282 0
31.7191 -77.1953 0
30.7026 -80.0236 0
28.0359 -80.3282 0
27.2042 -82.956 0
30.7026 -80.0236 0
29.6773 -82.6429 0
25.2305 -83.2657 0
24.5402 -85.6536 0
27.2042 -82.956 0
26.3539 -85.3869 0
24.5402 -85.6536 0
23.94 -87.7645 0
26.3539 -85.3869 0
25.4963 -87.6121 0
27.2042 -82.956 0
26.3539 -85.3869 0
29.6773 -82.6429 0
28.6296 -85.0681 0
26.3539 -85.3869 0
25.4963 -87.6121 0
28.6296 -85.0681 0
27.5518 -87.2885 0
21.5274 -87.7422 0
21.5388 -89.3457 0
22.6357 -87.8236 0
22.3707 -89.6148 0
21.5388 -89.3457 0
21.6908 -90.6688 0
22.3707 -89.6148 0
22.2026 -91.152 0
22.6357 -87.8236 0
22.3707 -89.6148 0
23.94 -87.7645 0
23.3722 -89.7056 0
22.3707 -89.6148 0
22.2026 -91.152 0
23.3722 -89.7056 0
22.9474 -91.3529 0
21.6908 -90.6688 0
22.0196 -91.4171 0
22.2026 -91.152 0
22.2722 -91.9863 0
22.0196 -91.4171 0
22.4393 -91.6695 0
22.2722 -91.9863 0
22.4393 -92.2898 0
22.2026 -91.152 0
22.2722 -91.9863 0
22.9474 -91.3529 0
22.6584 -92.5681 0
22.2722 -91.9863 0
22.4393 -92.2898 0
22.6584 -92.5681 0
22.4393 -92.8531 0
23.94 -87.7645 0
23.3722 -89.7056 0
25.4963 -87.6121 0
24.6362 -89.6129 0
23.3722 -89.7056 0
22.9474 -91.3529 0
24.6362 -89.6129 0
23.8227 -91.3343 0
25.4963 -87.6121 0
24.6362 -89.6129 0
27.5518 -87.2885 0
26.4381 -89.2872 0
24.6362 -89.6129 0
23.8227 -91.3343 0
26.4381 -89.2872 0
25.2481 -91.0194 0
22.9474 -91.3529 0
22.6584 -92.5681 0
23.8227 -91.3343 0
23.0748 -92.7671 0
22.6584 -92.5681 0
22.4393 -92.8531 0
23.0748 -92.7671 0
22.4393 -93.4759 0
23.8227 -91.3343 0
23.0748 -92.7671 0
25.2481 -91.0194 0
23.9482 -92.6179 0
23.0748 -92.7671 0
22.4393 -93.4759 0
23.9482 -92.6179 0
22.4393 -93.4193 0
5.53149 -46.1255 0
6.32422 -50.8283 0
10.2446 -46.3542 0
10.8258 -51.063 0
6.32422 -50.8283 0
7.14319 -55.3121 0
10.8258 -51.063 0
11.4368 -55.5507 0
10.2446 -46.3542 0
10.8258 -51.063 0
14.3228 -46.5402 0
14.7535 -51.2174 0
10.8258 -51.063 0
11.4368 -55.5507 0
14.7535 -51.2174 0
15.1752 -55.7375 0
7.14319 -55.3121 0
7.96752 -59.6183 0
11.4368 -55.5507 0
12.0977 -59.87 0
7.96752 -59.6183 0
8.84665 -63.7314 0
12.0977 -59.87 0
12.7588 -63.9968 0
11.4368 -55.5507 0
12.0977 -59.87 0
15.1752 -55.7375 0
15.6242 -60.0706 0
12.0977 -59.87 0
12.7588 -63.9968 0
15.6242 -60.0706 0
16.0806 -64.1365 0
14.3228 -46.5402 0
14.7535 -51.2174 0
18.3109 -46.5934 0
18.5229 -51.357 0
14.7535 -51.2174 0
15.1752 -55.7375 0
18.5229 -51.357 0
18.7619 -55.8617 0
18.3109 -46.5934 0