# vtk DataFile Version 3.0
#This file was generated by the deal.II library on 2020/8/31 at 13:08:17
ASCII
DATASET UNSTRUCTURED_GRID

POINTS 1536 double
5 0 0
5.125 0 0
5 0.125 0
5.125 0.125 0
5.125 0 0
5.25 0 0
5.125 0.125 0
5.25 0.125 0
5 0.125 0
5.125 0.125 0
5 0.25 0
5.125 0.25 0
5.125 0.125 0
5.25 0.125 0
5.125 0.25 0
5.25 0.25 0
5.25 0 0
5.375 0 0
5.25 0.125 0
5.375 0.125 0
5.375 0 0
5.5 0 0
5.375 0.125 0
5.5 0.125 0
5.25 0.125 0
5.375 0.125 0
5.25 0.25 0
5.375 0.25 0
5.375 0.125 0
5.5 0.125 0
5.375 0.25 0
5.5 0.25 0
5 0.25 0
5.125 0.25 0
5 0.375 0
5.125 0.375 0
5.125 0.25 0
5.25 0.25 0
5.125 0.375 0
5.25 0.375 0
5 0.375 0
5.125 0.375 0
5 0.5 0
5.125 0.5 0
5.125 0.375 0
5.25 0.375 0
5.125 0.5 0
5.25 0.5 0
5.25 0.25 0
5.375 0.25 0
5.25 0.375 0
5.375 0.375 0
5.375 0.25 0
5.5 0.25 0
5.375 0.375 0
5.5 0.375 0
5.25 0.375 0
5.375 0.375 0
5.25 0.5 0
5.375 0.5 0
5.375 0.375 0
5.5 0.375 0
5.375 0.5 0
5.5 0.5 0
5.5 0 0
5.625 0 0
5.5 0.125 0
5.625 0.125 0
5.625 0 0
5.75 0 0
5.625 0.125 0
5.75 0.125 0
5.5 0.125 0
5.625 0.125 0
5.5 0.25 0
5.625 0.25 0
5.625 0.125 0
5.75 0.125 0
5.625 0.25 0
5.75 0.25 0
5.75 0 0
5.875 0 0
5.75 0.125 0
5.875 0.125 0
5.875 0 0
6 0 0
5.875 0.125 0
6 0.125 0
5.75 0.125 0
5.875 0.125 0
5.75 0.25 0
5.875 0.25 0
5.875 0.125 0
6 0.125 0
5.875 0.25 0
6 0.25 0
5.5 0.25 0
5.625 0.25 0
5.5 0.375 0
5.625 0.375 0
5.625 0.25 0
5.75 0.25 0
5.625 0.375 0
5.75 0.375 0
5.5 0.375 0
5.625 0.375 0
5.5 0.5 0
5.625 0.5 0
5.625 0.375 0
5.75 0.375 0
5.625 0.5 0
5.75 0.5 0
5.75 0.25 0
5.875 0.25 0
5.75 0.375 0
5.875 0.375 0
5.875 0.25 0
6 0.25 0
5.875 0.375 0
6 0.375 0
5.75 0.375 0
5.875 0.375 0
5.75 0.5 0
5.875 0.5 0
5.875 0.375 0
6 0.375 0
5.875 0.5 0
6 0.5 0
5 0.5 0
5.125 0.5 0
5 0.625 0
5.125 0.625 0
5.125 0.5 0
5.25 0.5 0
5.125 0.625 0
5.25 0.625 0
5 0.625 0
5.125 0.625 0
5 0.75 0
5.125 0.75 0
5.125 0.625 0
5.25 0.625 0
5.125 0.75 0
5.25 0.75 0
5.25 0.5 0
5.375 0.5 0
5.25 0.625 0
5.375 0.625 0
5.375 0.5 0
5.5 0.5 0
5.375 0.625 0
5.5 0.625 0
5.25 0.625 0
5.375 0.625 0
5.25 0.75 0
5.375 0.75 0
5.375 0.625 0
5.5 0.625 0
5.375 0.75 0
5.5 0.75 0
5 0.75 0
5.125 0.75 0
5 0.875 0
5.125 0.875 0
5.125 0.75 0
5.25 0.75 0
5.125 0.875 0
5.25 0.875 0
5 0.875 0
5.125 0.875 0
5 1 0
5.125 1 0
5.125 0.875 0
5.25 0.875 0
5.125 1 0
5.25 1 0
5.25 0.75 0
5.375 0.75 0
5.25 0.875 0
5.375 0.875 0
5.375 0.75 0
5.5 0.75 0
5.375 0.875 0
5.5 0.875 0
5.25 0.875 0
5.375 0.875 0
5.25 1 0
5.375 1 0
5.375 0.875 0
5.5 0.875 0
5.375 1 0
5.5 1 0
5.5 0.5 0
5.625 0.5 0
5.5 0.625 0
5.625 0.625 0
5.625 0.5 0
5.75 0.5 0
5.625 0.625 0
5.75 0.625 0
5.5 0.625 0
5.625 0.625 0
5.5 0.75 0
5.625 0.75 0
5.625 0.625 0
5.75 0.625 0
5.625 0.75 0
5.75 0.75 0
5.75 0.5 0
5.875 0.5 0
5.75 0.625 0
5.875 0.625 0
5.875 0.5 0
6 0.5 0
5.875 0.625 0
6 0.625 0
5.75 0.625 0
5.875 0.625 0
5.75 0.75 0
5.875 0.75 0
5.875 0.625 0
6 0.625 0
5.875 0.75 0
6 0.75 0
5.5 0.75 0
5.625 0.75 0
5.5 0.875 0
5.625 0.875 0
5.625 0.75 0
5.75 0.75 0
5.625 0.875 0
5.75 0.875 0
5.5 0.875 0
5.625 0.875 0
5.5 1 0
5.625 1 0
5.625 0.875 0
5.75 0.875 0
5.625 1 0
5.75 1 0
5.75 0.75 0
5.875 0.75 0
5.75 0.875 0
5.875 0.875 0
5.875 0.75 0
6 0.75 0
5.875 0.875 0
6 0.875 0
5.75 0.875 0
5.875 0.875 0
5.75 1 0
5.875 1 0
5.875 0.875 0
6 0.875 0
5.875 1 0
6 1 0
4 0 0
4.125 0 0
4 0.125 0
4.125 0.125 0
4.125 0 0
4.25 0 0
4.125 0.125 0
4.25 0.125 0
4 0.125 0
4.125 0.125 0
4 0.25 0
4.125 0.25 0
4.125 0.125 0
4.25 0.125 0
4.125 0.25 0
4.25 0.25 0
4.25 0 0
4.375 0 0
4.25 0.125 0
4.375 0.125 0
4.375 0 0
4.5 0 0
4.375 0.125 0
4.5 0.125 0
4.25 0.125 0
4.375 0.125 0
4.25 0.25 0
4.375 0.25 0
4.375 0.125 0
4.5 0.125 0
4.375 0.25 0
4.5 0.25 0
4 0.25 0
4.125 0.25 0
4 0.375 0
4.125 0.375 0
4.125 0.25 0
4.25 0.25 0
4.125 0.375 0
4.25 0.375 0
4 0.375 0
4.125 0.375 0
4 0.5 0
4.125 0.5 0
4.125 0.375 0
4.25 0.375 0
4.125 0.5 0
4.25 0.5 0
4.25 0.25 0
4.375 0.25 0
4.25 0.375 0
4.375 0.375 0
4.375 0.25 0
4.5 0.25 0
4.375 0.375 0
4.5 0.375 0
4.25 0.375 0
4.375 0.375 0
4.25 0.5 0
4.375 0.5 0
4.375 0.375 0
4.5 0.375 0
4.375 0.5 0
4.5 0.5 0
4.5 0 0
4.625 0 0
4.5 0.125 0
4.625 0.125 0
4.625 0 0
4.75 0 0
4.625 0.125 0
4.75 0.125 0
4.5 0.125 0
4.625 0.125 0
4.5 0.25 0
4.625 0.25 0
4.625 0.125 0
4.75 0.125 0
4.625 0.25 0
4.75 0.25 0
4.75 0 0
4.875 0 0
4.75 0.125 0
4.875 0.125 0
4.875 0 0
5 0 0
4.875 0.125 0
5 0.125 0
4.75 0.125 0
4.875 0.125 0
4.75 0.25 0
4.875 0.25 0
4.875 0.125 0
5 0.125 0
4.875 0.25 0
5 0.25 0
4.5 0.25 0
4.625 0.25 0
4.5 0.375 0
4.625 0.375 0
4.625 0.25 0
4.75 0.25 0
4.625 0.375 0
4.75 0.375 0
4.5 0.375 0
4.625 0.375 0
4.5 0.5 0
4.625 0.5 0
4.625 0.375 0
4.75 0.375 0
4.625 0.5 0
4.75 0.5 0
4.75 0.25 0
4.875 0.25 0
4.75 0.375 0
4.875 0.375 0
4.875 0.25 0
5 0.25 0
4.875 0.375 0
5 0.375 0
4.75 0.375 0
4.875 0.375 0
4.75 0.5 0
4.875 0.5 0
4.875 0.375 0
5 0.375 0
4.875 0.5 0
5 0.5 0
4 0.5 0
4.125 0.5 0
4 0.625 0
4.125 0.625 0
4.125 0.5 0
4.25 0.5 0
4.125 0.625 0
4.25 0.625 0
4 0.625 0
4.125 0.625 0
4 0.75 0
4.125 0.75 0
4.125 0.625 0
4.25 0.625 0
4.125 0.75 0
4.25 0.75 0
4.25 0.5 0
4.375 0.5 0
4.25 0.625 0
4.375 0.625 0
4.375 0.5 0
4.5 0.5 0
4.375 0.625 0
4.5 0.625 0
4.25 0.625 0
4.375 0.625 0
4.25 0.75 0
4.375 0.75 0
4.375 0.625 0
4.5 0.625 0
4.375 0.75 0
4.5 0.75 0
4 0.75 0
4.125 0.75 0
4 0.875 0
4.125 0.875 0
4.125 0.75 0
4.25 0.75 0
4.125 0.875 0
4.25 0.875 0
4 0.875 0
4.125 0.875 0
4 1 0
4.125 1 0
4.125 0.875 0
4.25 0.875 0
4.125 1 0
4.25 1 0
4.25 0.75 0
4.375 0.75 0
4.25 0.875 0
4.375 0.875 0
4.375 0.75 0
4.5 0.75 0
4.375 0.875 0
4.5 0.875 0
4.25 0.875 0
4.375 0.875 0
4.25 1 0
4.375 1 0
4.375 0.875 0
4.5 0.875 0
4.375 1 0
4.5 1 0
4.5 0.5 0
4.625 0.5 0
4.5 0.625 0
4.625 0.625 0
4.625 0.5 0
4.75 0.5 0
4.625 0.625 0
4.75 0.625 0
4.5 0.625 0
4.625 0.625 0
4.5 0.75 0
4.625 0.75 0
4.625 0.625 0
4.75 0.625 0
4.625 0.75 0
4.75 0.75 0
4.75 0.5 0
4.875 0.5 0
4.75 0.625 0
4.875 0.625 0
4.875 0.5 0
5 0.5 0
4.875 0.625 0
5 0.625 0
4.75 0.625 0
4.875 0.625 0
4.75 0.75 0
4.875 0.75 0
4.875 0.625 0
5 0.625 0
4.875 0.75 0
5 0.75 0
4.5 0.75 0
4.625 0.75 0
4.5 0.875 0
4.625 0.875 0
4.625 0.75 0
4.75 0.75 0
4.625 0.875 0
4.75 0.875 0
4.5 0.875 0
4.625 0.875 0
4.5 1 0
4.625 1 0
4.625 0.875 0
4.75 0.875 0
4.625 1 0
4.75 1 0
4.75 0.75 0
4.875 0.75 0
4.75 0.875 0
4.875 0.875 0
4.875 0.75 0
5 0.75 0
4.875 0.875 0
5 0.875 0
4.75 0.875 0
4.875 0.875 0
4.75 1 0
4.875 1 0
4.875 0.875 0
5 0.875 0
4.875 1 0
5 1 0
3 0 0
3.125 0 0
3 0.125 0
3.125 0.125 0
3.125 0 0
3.25 0 0
3.125 0.125 0
3.25 0.125 0
3 0.125 0
3.125 0.125 0
3 0.25 0
3.125 0.25 0
3.125 0.125 0
3.25 0.125 0
3.125 0.25 0
3.25 0.25 0
3.25 0 0
3.375 0 0
3.25 0.125 0
3.375 0.125 0
3.375 0 0
3.5 0 0
3.375 0.125 0
3.5 0.125 0
3.25 0.125 0
3.375 0.125 0
3.25 0.25 0
3.375 0.25 0
3.375 0.125 0
3.5 0.125 0
3.375 0.25 0
3.5 0.25 0
3 0.25 0
3.125 0.25 0
3 0.375 0
3.125 0.375 0
3.125 0.25 0
3.25 0.25 0
3.125 0.375 0
3.25 0.375 0
3 0.375 0
3.125 0.375 0
3 0.5 0
3.125 0.5 0
3.125 0.375 0
3.25 0.375 0
3.125 0.5 0
3.25 0.5 0
3.25 0.25 0
3.375 0.25 0
3.25 0.375 0
3.375 0.375 0
3.375 0.25 0
3.5 0.25 0
3.375 0.375 0
3.5 0.375 0
3.25 0.375 0
3.375 0.375 0
3.25 0.5 0
3.375 0.5 0
3.375 0.375 0
3.5 0.375 0
3.375 0.5 0
3.5 0.5 0
3.5 0 0
3.625 0 0
3.5 0.125 0
3.625 0.125 0
3.625 0 0
3.75 0 0
3.625 0.125 0
3.75 0.125 0
3.5 0.125 0
3.625 0.125 0
3.5 0.25 0
3.625 0.25 0
3.625 0.125 0
3.75 0.125 0
3.625 0.25 0
3.75 0.25 0
3.75 0 0
3.875 0 0
3.75 0.125 0
3.875 0.125 0
3.875 0 0
4 0 0
3.875 0.125 0
4 0.125 0
3.75 0.125 0
3.875 0.125 0
3.75 0.25 0
3.875 0.25 0
3.875 0.125 0
4 0.125 0
3.875 0.25 0
4 0.25 0
3.5 0.25 0
3.625 0.25 0
3.5 0.375 0
3.625 0.375 0
3.625 0.25 0
3.75 0.25 0
3.625 0.375 0
3.75 0.375 0
3.5 0.375 0
3.625 0.375 0
3.5 0.5 0
3.625 0.5 0
3.625 0.375 0
3.75 0.375 0
3.625 0.5 0
3.75 0.5 0
3.75 0.25 0
3.875 0.25 0
3.75 0.375 0
3.875 0.375 0
3.875 0.25 0
4 0.25 0
3.875 0.375 0
4 0.375 0
3.75 0.375 0
3.875 0.375 0
3.75 0.5 0
3.875 0.5 0
3.875 0.375 0
4 0.375 0
3.875 0.5 0
4 0.5 0
3 0.5 0
3.125 0.5 0
3 0.625 0
3.125 0.625 0
3.125 0.5 0
3.25 0.5 0
3.125 0.625 0
3.25 0.625 0
3 0.625 0
3.125 0.625 0
3 0.75 0
3.125 0.75 0
3.125 0.625 0
3.25 0.625 0
3.125 0.75 0
3.25 0.75 0
3.25 0.5 0
3.375 0.5 0
3.25 0.625 0
3.375 0.625 0
3.375 0.5 0
3.5 0.5 0
3.375 0.625 0
3.5 0.625 0
3.25 0.625 0
3.375 0.625 0
3.25 0.75 0
3.375 0.75 0
3.375 0.625 0
3.5 0.625 0
3.375 0.75 0
3.5 0.75 0
3 0.75 0
3.125 0.75 0
3 0.875 0
3.125 0.875 0
3.125 0.75 0
3.25 0.75 0
3.125 0.875 0
3.25 0.875 0
3 0.875 0
3.125 0.875 0
3 1 0
3.125 1 0
3.125 0.875 0
3.25 0.875 0
3.125 1 0
3.25 1 0
3.25 0.75 0
3.375 0.75 0
3.25 0.875 0
3.375 0.875 0
3.375 0.75 0
3.5 0.75 0
3.375 0.875 0
3.5 0.875 0
3.25 0.875 0
3.375 0.875 0
3.25 1 0
3.375 1 0
3.375 0.875 0
3.5 0.875 0
3.375 1 0
3.5 1 0
3.5 0.5 0
3.625 0.5 0
3.5 0.625 0
3.625 0.625 0
3.625 0.5 0
3.75 0.5 0
3.625 0.625 0
3.75 0.625 0
3.5 0.625 0
3.625 0.625 0
3.5 0.75 0
3.625 0.75 0
3.625 0.625 0
3.75 0.625 0
3.625 0.75 0
3.75 0.75 0
3.75 0.5 0
3.875 0.5 0
3.75 0.625 0
3.875 0.625 0
3.875 0.5 0
4 0.5 0
3.875 0.625 0
4 0.625 0
3.75 0.625 0
3.875 0.625 0
3.75 0.75 0
3.875 0.75 0
3.875 0.625 0
4 0.625 0
3.875 0.75 0
4 0.75 0
3.5 0.75 0
3.625 0.75 0
3.5 0.875 0
3.625 0.875 0
3.625 0.75 0
3.75 0.75 0
3.625 0.875 0
3.75 0.875 0
3.5 0.875 0
3.625 0.875 0
3.5 1 0
3.625 1 0
3.625 0.875 0
3.75 0.875 0
3.625 1 0
3.75 1 0
3.75 0.75 0
3.875 0.75 0
3.75 0.875 0
3.875 0.875 0
3.875 0.75 0
4 0.75 0
3.875 0.875 0
4 0.875 0
3.75 0.875 0
3.875 0.875 0
3.75 1 0
3.875 1 0
3.875 0.875 0
4 0.875 0
3.875 1 0
4 1 0
2 0 0
2.125 0 0
2 0.125 0
2.125 0.125 0
2.125 0 0
2.25 0 0
2.125 0.125 0
2.25 0.125 0
2 0.125 0
2.125 0.125 0
2 0.25 0
2.125 0.25 0
2.125 0.125 0
2.25 0.125 0
2.125 0.25 0
2.25 0.25 0
2.25 0 0
2.375 0 0
2.25 0.125 0
2.375 0.125 0
2.375 0 0
2.5 0 0
2.375 0.125 0
2.5 0.125 0
2.25 0.125 0
2.375 0.125 0
2.25 0.25 0
2.375 0.25 0
2.375 0.125 0
2.5 0.125 0
2.375 0.25 0
2.5 0.25 0
2 0.25 0
2.125 0.25 0
2 0.375 0
2.125 0.375 0
2.125 0.25 0
2.25 0.25 0
2.125 0.375 0
2.25 0.375 0
2 0.375 0
2.125 0.375 0
2 0.5 0
2.125 0.5 0
2.125 0.375 0
2.25 0.375 0
2.125 0.5 0
2.25 0.5 0
2.25 0.25 0
2.375 0.25 0
2.25 0.375 0
2.375 0.375 0
[...]
POINT_DATA 1536
VECTORS displacements double
-159.322 175.265 0
-161.449 156.31 0
-140.909 175.919 0
-142.502 156.889 0
-161.449 156.31 0
-163.342 136.873 0
-142.502 156.889 0
-143.906 137.382 0
-140.909 175.919 0
-142.502 156.889 0
-122.95 176.374 0
-123.987 157.279 0
-142.502 156.889 0
-143.906 137.382 0
-123.987 157.279 0
-124.872 137.703 0
-163.342 136.873 0
-165.037 117.007 0
-143.906 137.382 0
-145.133 117.452 0
-165.037 117.007 0
-166.603 96.7308 0
-145.133 117.452 0
-146.188 97.1268 0
-143.906 137.382 0
-145.133 117.452 0
-124.872 137.703 0
-125.592 117.699 0
-145.133 117.452 0
-146.188 97.1268 0
-125.592 117.699 0
-126.118 97.2868 0
-122.95 176.374 0
-123.987 157.279 0
-105.31 176.624 0
-105.794 157.475 0
-123.987 157.279 0
-124.872 137.703 0
-105.794 157.475 0
-106.174 137.836 0
-105.31 176.624 0
-105.794 157.475 0
-87.8483 176.676 0
-87.7984 157.49 0
-105.794 157.475 0
-106.174 137.836 0
-87.7984 157.49 0
-87.713 137.808 0
-124.872 137.703 0
-125.592 117.699 0
-106.174 137.836 0
-106.433 117.761 0
-125.592 117.699 0
-126.118 97.2868 0
-106.433 117.761 0
-106.549 97.2809 0
-106.174 137.836 0
-106.433 117.761 0
-87.713 137.808 0
-87.5803 117.693 0
-106.433 117.761 0
-106.549 97.2809 0
-87.5803 117.693 0
-87.3983 97.1996 0
-166.603 96.7308 0
-168.155 76.0076 0
-146.188 97.1268 0
-147.056 76.3502 0
-168.155 76.0076 0
-169.935 54.5181 0
-147.056 76.3502 0
-147.642 54.9314 0
-146.188 97.1268 0
-147.056 76.3502 0
-126.118 97.2868 0
-126.398 76.4252 0
-147.056 76.3502 0
-147.642 54.9314 0
-126.398 76.4252 0
-126.362 54.897 0
-169.935 54.5181 0
-172.229 31.7791 0
-147.642 54.9314 0
-147.54 31.7032 0
-172.229 31.7791 0
-174.782 0 0
-147.54 31.7032 0
-148.158 6.94401 0
-147.642 54.9314 0
-147.54 31.7032 0
-126.362 54.897 0
-126.34 32.6294 0
-147.54 31.7032 0
-148.158 6.94401 0
-126.34 32.6294 0
-126.916 10.9046 0
-126.118 97.2868 0
-126.398 76.4252 0
-106.549 97.2809 0
-106.511 76.3897 0
-126.398 76.4252 0
-126.362 54.897 0
-106.511 76.3897 0
-106.415 55.1134 0
-106.549 97.2809 0
-106.511 76.3897 0
-87.3983 97.1996 0
-87.2009 76.3997 0
-106.511 76.3897 0
-106.415 55.1134 0
-87.2009 76.3997 0
-87.0777 55.4453 0
-126.362 54.897 0
-126.34 32.6294 0
-106.415 55.1134 0
-106.493 33.7716 0
-126.34 32.6294 0
-126.916 10.9046 0
-106.493 33.7716 0
-106.917 13.2506 0
-106.415 55.1134 0
-106.493 33.7716 0
-87.0777 55.4453 0
-87.1439 34.679 0
-106.493 33.7716 0
-106.917 13.2506 0
-87.1439 34.679 0
-87.4183 14.6767 0
-87.8483 176.676 0
-87.7984 157.49 0
-70.4089 176.543 0
-69.849 157.346 0
-87.7984 157.49 0
-87.713 137.808 0
-69.849 157.346 0
-69.3349 137.652 0
-70.4089 176.543 0
-69.849 157.346 0
-52.8212 176.237 0
-51.7668 157.061 0
-69.849 157.346 0
-69.3349 137.652 0
-51.7668 157.061 0
-50.848 137.39 0
-87.713 137.808 0
-87.5803 117.693 0
-69.3349 137.652 0
-68.8637 117.536 0
-87.5803 117.693 0
-87.3983 97.1996 0
-68.8637 117.536 0
-68.4456 97.0854 0
-69.3349 137.652 0
-68.8637 117.536 0
-50.848 137.39 0
-50.0674 117.31 0
-68.8637 117.536 0
-68.4456 97.0854 0
-50.0674 117.31 0
-49.4351 96.9305 0
-52.8212 176.237 0
-51.7668 157.061 0
-34.9019 175.762 0
-33.3547 156.641 0
-51.7668 157.061 0
-50.848 137.39 0
-33.3547 156.641 0
-32.036 137.029 0
-34.9019 175.762 0
-33.3547 156.641 0
-16.4637 175.115 0
-14.4059 156.081 0
-33.3547 156.641 0
-32.036 137.029 0
-14.4059 156.081 0
-12.6671 136.562 0
-50.848 137.39 0
-50.0674 117.31 0
-32.036 137.029 0
-30.9548 117.016 0
-50.0674 117.31 0
-49.4351 96.9305 0
-30.9548 117.016 0
-30.1203 96.7229 0
-32.036 137.029 0
-30.9548 117.016 0
-12.6671 136.562 0
-11.2704 116.65 0
-30.9548 117.016 0
-30.1203 96.7229 0
-11.2704 116.65 0
-10.2386 96.4644 0
-87.3983 97.1996 0
-87.2009 76.3997 0
-68.4456 97.0854 0
-68.1149 76.4204 0
-87.2009 76.3997 0
-87.0777 55.4453 0
-68.1149 76.4204 0
-67.9285 55.7281 0
-68.4456 97.0854 0
-68.1149 76.4204 0
-49.4351 96.9305 0
-48.9702 76.3954 0
-68.1149 76.4204 0
-67.9285 55.7281 0
-48.9702 76.3954 0
-48.6952 55.8924 0
-87.0777 55.4453 0
-87.1439 34.679 0
-67.9285 55.7281 0
-67.9283 35.2899 0
-87.1439 34.679 0
-87.4183 14.6767 0
-67.9283 35.2899 0
-68.0694 15.476 0
-67.9285 55.7281 0
-67.9283 35.2899 0
-48.6952 55.8924 0
-48.6121 35.6354 0
-67.9283 35.2899 0
-68.0694 15.476 0
-48.6121 35.6354 0
-48.6484 15.83 0
-49.4351 96.9305 0
-48.9702 76.3954 0
-30.1203 96.7229 0
-29.5351 76.2995 0
-48.9702 76.3954 0
-48.6952 55.8924 0
-29.5351 76.2995 0
-29.1876 55.9271 0
-30.1203 96.7229 0
-29.5351 76.2995 0
-10.2386 96.4644 0
-9.57929 76.153 0
-29.5351 76.2995 0
-29.1876 55.9271 0
-9.57929 76.153 0
-9.2604 55.8837 0
-48.6952 55.8924 0
-48.6121 35.6354 0
-29.1876 55.9271 0
-29.0413 35.7765 0
-48.6121 35.6354 0
-48.6484 15.83 0
-29.0413 35.7765 0
-29.0158 15.9132 0
-29.1876 55.9271 0
-29.0413 35.7765 0
-9.2604 55.8837 0
-9.18166 35.8009 0
-29.0413 35.7765 0
-29.0158 15.9132 0
-9.18166 35.8009 0
-9.18305 15.912 0
-132.505 301.247 0
-136.847 288.66 0
-120.783 302.554 0
-124.036 289.882 0
-136.847 288.66 0
-140.9 275.026 0
-124.036 289.882 0
-127.076 276.166 0
-120.783 302.554 0
-124.036 289.882 0
-109.567 303.481 0
-111.726 290.751 0
-124.036 289.882 0
-127.076 276.166 0
-111.726 290.751 0
-113.748 276.978 0
-140.9 275.026 0
-144.668 260.419 0
-127.076 276.166 0
-129.903 261.477 0
-144.668 260.419 0
-148.154 244.909 0
-129.903 261.477 0
-132.52 245.885 0
-127.076 276.166 0
-129.903 261.477 0
-113.748 276.978 0
-115.63 262.231 0
-129.903 261.477 0
-132.52 245.885 0
-115.63 262.231 0
-117.375 246.581 0
-109.567 303.481 0
-111.726 290.751 0
-98.6749 304.025 0
-99.742 291.265 0
-111.726 290.751 0
-113.748 276.978 0
-99.742 291.265 0
-100.746 277.46 0
-98.6749 304.025 0
-99.742 291.265 0
-87.932 304.191 0
-87.9131 291.425 0
-99.742 291.265 0
-100.746 277.46 0
-87.9131 291.425 0
-87.9025 277.614 0
-113.748 276.978 0
-115.63 262.231 0
-100.746 277.46 0
-101.684 262.68 0
-115.63 262.231 0
-117.375 246.581 0
-101.684 262.68 0
-102.554 246.996 0
-100.746 277.46 0
-101.684 262.68 0
-87.9025 277.614 0
-87.8973 262.826 0
-101.684 262.68 0
-102.554 246.996 0
-87.8973 262.826 0
-87.8949 247.131 0
-148.154 244.909 0
-151.359 228.567 0
-132.52 245.885 0
-134.927 229.462 0
-151.359 228.567 0
-154.286 211.465 0
-134.927 229.462 0
-137.125 212.278 0
-132.52 245.885 0
-134.927 229.462 0
-117.375 246.581 0
-118.979 230.099 0
-134.927 229.462 0
-137.125 212.278 0
-118.979 230.099 0
-120.444 212.856 0
-154.286 211.465 0
-156.939 193.673 0
-137.125 212.278 0
-139.118 194.406 0
-156.939 193.673 0
-159.322 175.265 0
-139.118 194.406 0
-140.909 175.919 0
-137.125 212.278 0
-139.118 194.406 0
-120.444 212.856 0
-121.768 194.924 0
-139.118 194.406 0
-140.909 175.919 0
-121.768 194.924 0
-122.95 176.374 0
-117.375 246.581 0
-118.979 230.099 0
-102.554 246.996 0
-103.355 230.478 0
-118.979 230.099 0
-120.444 212.856 0
-103.355 230.478 0
-104.084 213.196 0
-102.554 246.996 0
-103.355 230.478 0
-87.8949 247.131 0
-87.8925 230.599 0
-103.355 230.478 0
-104.084 213.196 0
-87.8925 230.599 0
-87.8873 213.299 0
-120.444 212.856 0
-121.768 194.924 0
-104.084 213.196 0
-104.738 195.221 0
-121.768 194.924 0
-122.95 176.374 0
-104.738 195.221 0
-105.31 176.624 0
-104.084 213.196 0
-104.738 195.221 0
-87.8873 213.299 0
-87.8747 195.302 0
-104.738 195.221 0
-105.31 176.624 0
-87.8747 195.302 0
-87.8483 176.676 0
-87.932 304.191 0
-87.9131 291.425 0
-77.1697 303.984 0
-76.0731 291.236 0
-87.9131 291.425 0
-87.9025 277.614 0
-76.0731 291.236 0
-75.0533 277.442 0
-77.1697 303.984 0
-76.0731 291.236 0
-66.2289 303.41 0
-64.0621 290.703 0
-76.0731 291.236 0
-75.0533 277.442 0
-64.0621 290.703 0
-62.0371 276.947 0
-87.9025 277.614 0
-87.8973 262.826 0
-75.0533 277.442 0
-74.1076 262.669 0
-87.8973 262.826 0
-87.8949 247.131 0
-74.1076 262.669 0
-73.2339 246.986 0
-75.0533 277.442 0
-74.1076 262.669 0
-62.0371 276.947 0
-60.1528 262.211 0
-74.1076 262.669 0
-73.2339 246.986 0
-60.1528 262.211 0
-58.4086 246.564 0
-66.2289 303.41 0
-64.0621 290.703 0
-54.9608 302.475 0
-51.7263 289.827 0
-64.0621 290.703 0
-62.0371 276.947 0
-51.7263 289.827 0
-48.6963 276.131 0
-54.9608 302.475 0
-51.7263 289.827 0
-43.2233 301.177 0
-38.9147 288.608 0
-51.7263 289.827 0
-48.6963 276.131 0
-38.9147 288.608 0
-34.8749 274.992 0
-62.0371 276.947 0
-60.1528 262.211 0
-48.6963 276.131 0
-45.8728 261.454 0
-60.1528 262.211 0
-58.4086 246.564 0
-45.8728 261.454 0
-43.257 245.865 0
-48.6963 276.131 0
-45.8728 261.454 0
-34.8749 274.992 0
-31.1083 260.395 0
-45.8728 261.454 0
-43.257 245.865 0
-31.1083 260.395 0
-27.6178 244.887 0
-87.8949 247.131 0
-87.8925 230.599 0
-73.2339 246.986 0
-72.43 230.464 0
-87.8925 230.599 0
-87.8873 213.299 0
-72.43 230.464 0
-71.6937 213.17 0
-73.2339 246.986 0
-72.43 230.464 0
-58.4086 246.564 0
-56.804 230.075 0
-72.43 230.464 0
-71.6937 213.17 0
-56.804 230.075 0
-55.3385 212.812 0
-87.8873 213.299 0
-87.8747 195.302 0
-71.6937 213.17 0
-71.0217 195.174 0
-87.8747 195.302 0
-87.8483 176.676 0
-71.0217 195.174 0
-70.4089 176.543 0
-71.6937 213.17 0
-71.0217 195.174 0
-55.3385 212.812 0
-54.0113 194.844 0
-71.0217 195.174 0
-70.4089 176.543 0
-54.0113 194.844 0
-52.8212 176.237 0
-58.4086 246.564 0
-56.804 230.075 0
-43.257 245.865 0
-40.8503 229.434 0
-56.804 230.075 0
-55.3385 212.812 0
-40.8503 229.434 0
-38.6539 212.227 0
-43.257 245.865 0
-40.8503 229.434 0
-27.6178 244.887 0
-24.405 228.537 0
-40.8503 229.434 0
-38.6539 212.227 0
-24.405 228.537 0
-21.4723 211.413 0
-55.3385 212.812 0
-54.0113 194.844 0
-38.6539 212.227 0
-36.67 194.314 0
-54.0113 194.844 0
-52.8212 176.237 0
-36.67 194.314 0
-34.9019 175.762 0
-38.6539 212.227 0
-36.67 194.314 0
-21.4723 211.413 0
-18.823 193.583 0
-36.67 194.314 0
-34.9019 175.762 0
-18.823 193.583 0
-16.4637 175.115 0
-87.3898 353.674 0
-93.8206 352.759 0
-87.3901 355.56 0
-92.1101 354.627 0
-93.8206 352.759 0
-100.142 350.041 0
-92.1101 354.627 0
-96.7559 351.86 0
-87.3901 355.56 0
-92.1101 354.627 0
-87.3904 356.984 0
-90.5651 356.03 0
-92.1101 354.627 0
-96.7559 351.86 0
-90.5651 356.03 0
-93.6761 353.207 0
-100.142 350.041 0
-106.263 345.595 0
-96.7559 351.86 0
-101.265 347.342 0
-106.263 345.595 0
-112.121 339.526 0
-101.265 347.342 0
-105.594 341.187 0
-96.7559 351.86 0
-101.265 347.342 0
-93.6761 353.207 0
-96.676 348.612 0
-101.265 347.342 0
-105.594 341.187 0
-96.676 348.612 0
-99.5393 342.377 0
-87.3904 356.984 0
-90.5651 356.03 0
-87.3906 358.054 0
-89.1217 357.065 0
-90.5651 356.03 0
-93.6761 353.207 0
-89.1217 357.065 0
-90.782 354.153 0
-87.3906 358.054 0
-89.1217 357.065 0
-87.3908 358.852 0
-87.7352 357.8 0
-89.1217 357.065 0
-90.782 354.153 0
-87.7352 357.8 0
-87.9802 354.735 0
-93.6761 353.207 0
-96.676 348.612 0
-90.782 354.153 0
-92.3307 349.45 0
-96.676 348.612 0
-99.5393 342.377 0
-92.3307 349.45 0
-93.7638 343.119 0
-90.782 354.153 0
-92.3307 349.45 0
-87.9802 354.735 0
-88.0908 349.867 0
-92.3307 349.45 0
-93.7638 343.119 0
-88.0908 349.867 0
-88.0984 343.412 0
-112.121 339.526 0
-117.68 331.949 0
-105.594 341.187 0
-109.718 333.52 0
-117.68 331.949 0
-122.929 322.978 0
-109.718 333.52 0
-113.626 324.459 0
-105.594 341.187 0
-109.718 333.52 0
-99.5393 342.377 0
-102.258 334.635 0
-109.718 333.52 0
-113.626 324.459 0
-102.258 334.635 0
-104.834 325.506 0
-122.929 322.978 0
-127.868 312.714 0
-113.626 324.459 0
-117.314 314.106 0
-127.868 312.714 0
-132.505 301.247 0
-117.314 314.106 0
-120.783 302.554 0
-113.626 324.459 0
-117.314 314.106 0
-104.834 325.506 0
-107.269 315.092 0
-117.314 314.106 0
-120.783 302.554 0
-107.269 315.092 0
-109.567 303.481 0
-99.5393 342.377 0
-102.258 334.635 0
-93.7638 343.119 0
-95.0988 335.303 0
-102.258 334.635 0
-104.834 325.506 0
-95.0988 335.303 0
-96.3555 326.122 0
-93.7638 343.119 0
-95.0988 335.303 0
-88.0984 343.412 0
-88.0567 335.525 0
-95.0988 335.303 0
-96.3555 326.122 0
-88.0567 335.525 0
-88.0052 326.31 0
-104.834 325.506 0
-107.269 315.092 0
-96.3555 326.122 0
-97.546 315.669 0
-107.269 315.092 0
-109.567 303.481 0
-97.546 315.669 0
-98.6749 304.025 0
-96.3555 326.122 0
-97.546 315.669 0
-88.0052 326.31 0
-87.9623 315.842 0
-97.546 315.669 0
-98.6749 304.025 0
-87.9623 315.842 0
-87.932 304.191 0
-87.3908 358.852 0
-87.7352 357.8 0
-87.3909 359.459 0
-86.3665 358.285 0
-87.7352 357.8 0
-87.9802 354.735 0
-86.3665 358.285 0
-85.1777 354.949 0
-87.3909 359.459 0
-86.3665 358.285 0
-87.391 359.984 0
-84.9608 358.553 0
-86.3665 358.285 0
-85.1777 354.949 0
-84.9608 358.553 0
-82.2366 354.721 0
-87.9802 354.735 0
-88.0908 349.867 0
-85.1777 354.949 0
-83.811 349.834 0
-88.0908 349.867 0
-88.0984 343.412 0
-83.811 349.834 0
-82.3682 343.236 0
-85.1777 354.949 0
-83.811 349.834 0
-82.2366 354.721 0
-79.2884 349.271 0
-83.811 349.834 0
-82.3682 343.236 0
-79.2884 349.271 0
-76.3711 342.563 0
-87.391 359.984 0
-84.9608 358.553 0
-87.3908 360.636 0
-83.3728 358.565 0
-84.9608 358.553 0
-82.2366 354.721 0
-83.3728 358.565 0
-78.8028 353.825 0
-87.3908 360.636 0
-83.3728 358.565 0
-87.3902 361.425 0
-80.2941 358.016 0
-83.3728 358.565 0
-78.8028 353.825 0
-80.2941 358.016 0
-74.0418 352.057 0
-82.2366 354.721 0
-79.2884 349.271 0
-78.8028 353.825 0
-74.2009 348.101 0
-79.2884 349.271 0
-76.3711 342.563 0
-74.2009 348.101 0
-69.9171 341.407 0
-78.8028 353.825 0
-74.2009 348.101 0
-74.0418 352.057 0
-68.3804 346.463 0
-74.2009 348.101 0
-69.9171 341.407 0
-68.3804 346.463 0
-62.9312 339.816 0
-88.0984 343.412 0
-88.0567 335.525 0
-82.3682 343.236 0
-80.9509 335.296 0
-88.0567 335.525 0
-88.0052 326.31 0
-80.9509 335.296 0
-79.6068 326.073 0
-82.3682 343.236 0
-80.9509 335.296 0
-76.3711 342.563 0
-73.6052 334.617 0
-80.9509 335.296 0
-79.6068 326.073 0
-73.6052 334.617 0
-70.9964 325.421 0
-88.0052 326.31 0
-87.9623 315.842 0
-79.6068 326.073 0
-78.3465 315.617 0
-87.9623 315.842 0
-87.932 304.191 0
-78.3465 315.617 0
-77.1697 303.984 0
-79.6068 326.073 0
-78.3465 315.617 0
-70.9964 325.421 0
-68.5393 315.003 0
-78.3465 315.617 0
-77.1697 303.984 0
-68.5393 315.003 0
-66.2289 303.41 0
-76.3711 342.563 0
-73.6052 334.617 0
-69.9171 341.407 0
-65.8715 333.505 0
-73.6052 334.617 0
-70.9964 325.421 0
-65.8715 333.505 0
-62.0344 324.367 0
-69.9171 341.407 0
-65.8715 333.505 0
-62.9312 339.816 0
-57.6664 331.985 0
-65.8715 333.505 0
-62.0344 324.367 0
-57.6664 331.985 0
-52.6132 322.917 0
-70.9964 325.421 0
-68.5393 315.003 0
-62.0344 324.367 0
-58.3975 314.008 0
-68.5393 315.003 0
-66.2289 303.41 0
-58.3975 314.008 0
-54.9608 302.475 0
-62.0344 324.367 0
-58.3975 314.008 0
-52.6132 322.917 0
-47.7932 312.633 0
-58.3975 314.008 0
-54.9608 302.475 0
-47.7932 312.633 0
-43.2233 301.177 0
-42.2766 301.246 0
-46.9135 312.713 0
-53.9986 302.553 0
-57.468 314.105 0
-46.9135 312.713 0
-51.8529 322.977 0
-57.468 314.105 0
-61.1558 324.457 0
-53.9986 302.553 0
-57.468 314.105 0
-65.2151 303.48 0
-67.5122 315.091 0
-57.468 314.105 0
-61.1558 324.457 0
-67.5122 315.091 0
-69.9477 325.505 0
-51.8529 322.977 0
-57.1015 331.948 0
-61.1558 324.457 0
-65.063 333.519 0
-57.1015 331.948 0
-62.6604 339.525 0
-65.063 333.519 0
-69.1866 341.186 0
-61.1558 324.457 0
-65.063 333.519 0
-69.9477 325.505 0
-72.5233 334.634 0
-65.063 333.519 0
-69.1866 341.186 0
-72.5233 334.634 0
-75.242 342.376 0
-65.2151 303.48 0
-67.5122 315.091 0
-76.1067 304.024 0
-77.2356 315.668 0
-67.5122 315.091 0
-69.9477 325.505 0
-77.2356 315.668 0
-78.426 326.121 0
-76.1067 304.024 0
-77.2356 315.668 0
-86.8495 304.19 0
-86.8193 315.841 0
-77.2356 315.668 0
-78.426 326.121 0
-86.8193 315.841 0
-86.7763 326.309 0
-69.9477 325.505 0
-72.5233 334.634 0
-78.426 326.121 0
-79.6826 335.302 0
-72.5233 334.634 0
-75.242 342.376 0
-79.6826 335.302 0
-81.0176 343.117 0
-78.426 326.121 0
-79.6826 335.302 0
-86.7763 326.309 0
-86.7248 335.524 0
-79.6826 335.302 0
-81.0176 343.117 0
-86.7248 335.524 0
-86.6831 343.411 0
-62.6604 339.525 0
-68.5176 345.594 0
-69.1866 341.186 0
-73.5157 347.341 0
-68.5176 345.594 0
-74.6384 350.041 0
-73.5157 347.341 0
-78.0248 351.859 0
-69.1866 341.186 0
-73.5157 347.341 0
-75.242 342.376 0
-78.1051 348.611 0
-73.5157 347.341 0
-78.0248 351.859 0
-78.1051 348.611 0
-81.1048 353.206 0
-74.6384 350.041 0
-80.9593 352.759 0
-78.0248 351.859 0
-82.6702 354.627 0
-80.9593 352.759 0
-87.3898 353.674 0
-82.6702 354.627 0
-87.3901 355.56 0
-78.0248 351.859 0
-82.6702 354.627 0
-81.1048 353.206 0
-84.2158 356.03 0
-82.6702 354.627 0
-87.3901 355.56 0
-84.2158 356.03 0
-87.3904 356.984 0
-75.242 342.376 0
-78.1051 348.611 0
-81.0176 343.117 0
-82.4506 349.449 0
-78.1051 348.611 0
-81.1048 353.206 0
-82.4506 349.449 0
-83.9992 354.152 0
-81.0176 343.117 0
-82.4506 349.449 0
-86.6831 343.411 0
-86.6907 349.866 0
-82.4506 349.449 0
-83.9992 354.152 0
-86.6907 349.866 0
-86.8013 354.734 0
-81.1048 353.206 0
-84.2158 356.03 0
-83.9992 354.152 0
-85.6595 357.065 0
-84.2158 356.03 0
-87.3904 356.984 0
-85.6595 357.065 0
-87.3906 358.054 0
-83.9992 354.152 0
-85.6595 357.065 0
-86.8013 354.734 0
-87.0463 357.8 0
-85.6595 357.065 0
-87.3906 358.054 0
-87.0463 357.8 0
-87.3908 358.852 0
-86.8495 304.19 0
-86.8193 315.841 0
-97.6118 303.983 0
-96.435 315.616 0
-86.8193 315.841 0
-86.7763 326.309 0
-96.435 315.616 0
-95.1747 326.072 0
-97.6118 303.983 0
-96.435 315.616 0
-108.552 303.409 0
-106.242 315.002 0
-96.435 315.616 0
-95.1747 326.072 0
-106.242 315.002 0
-103.785 325.42 0
-86.7763 326.309 0
-86.7248 335.524 0
-95.1747 326.072 0
-93.8307 335.295 0
-86.7248 335.524 0
-86.6831 343.411 0
-93.8307 335.295 0
-92.4135 343.235 0
-95.1747 326.072 0
-93.8307 335.295 0
-103.785 325.42 0
-101.176 334.616 0
-93.8307 335.295 0
-92.4135 343.235 0
-101.176 334.616 0
-98.4107 342.562 0
-108.552 303.409 0
-106.242 315.002 0
-119.821 302.474 0
-116.384 314.006 0
-106.242 315.002 0
-103.785 325.42 0
-116.384 314.006 0
-112.747 324.365 0
-119.821 302.474 0
-116.384 314.006 0
-131.558 301.176 0
-126.988 312.632 0
-116.384 314.006 0
-112.747 324.365 0
-126.988 312.632 0
-122.168 322.916 0
-103.785 325.42 0
-101.176 334.616 0
-112.747 324.365 0
-108.91 333.504 0
-101.176 334.616 0
-98.4107 342.562 0
-108.91 333.504 0
-104.865 341.406 0
-112.747 324.365 0
-108.91 333.504 0
-122.168 322.916 0
-117.115 331.984 0
-108.91 333.504 0
-104.865 341.406 0
-117.115 331.984 0
-111.851 339.815 0
-86.6831 343.411 0
-86.6907 349.866 0
-92.4135 343.235 0
-90.9707 349.833 0
-86.6907 349.866 0
-86.8013 354.734 0
-90.9707 349.833 0
-89.604 354.949 0
-92.4135 343.235 0
-90.9707 349.833 0
-98.4107 342.562 0
-95.4935 349.27 0
-90.9707 349.833 0
-89.604 354.949 0
-95.4935 349.27 0
-92.5454 354.721 0
-86.8013 354.734 0
-87.0463 357.8 0
-89.604 354.949 0
-88.4153 358.284 0
-87.0463 357.8 0
-87.3908 358.852 0
-88.4153 358.284 0
-87.3909 359.459 0
-89.604 354.949 0
-88.4153 358.284 0
-92.5454 354.721 0
-89.8212 358.552 0
-88.4153 358.284 0
-87.3909 359.459 0
-89.8212 358.552 0
-87.391 359.984 0
-98.4107 342.562 0
-95.4935 349.27 0
-104.865 341.406 0
-100.581 348.1 0
-95.4935 349.27 0
-92.5454 354.721 0
-100.581 348.1 0
-95.9799 353.824 0
-104.865 341.406 0
-100.581 348.1 0
-111.851 339.815 0
-106.402 346.462 0
-100.581 348.1 0
-95.9799 353.824 0
-106.402 346.462 0
-100.741 352.057 0
-92.5454 354.721 0
-89.8212 358.552 0
-95.9799 353.824 0
-91.4096 358.565 0
-89.8212 358.552 0
-87.391 359.984 0
-91.4096 358.565 0
-87.3908 360.636 0
-95.9799 353.824 0
-91.4096 358.565 0
-100.741 352.057 0
-94.4887 358.016 0
-91.4096 358.565 0
-87.3908 360.636 0
-94.4887 358.016 0
-87.3902 361.425 0
-15.4596 175.265 0
-17.8432 193.673 0
-33.8733 175.919 0
-35.6635 194.406 0
-17.8432 193.673 0
-20.4953 211.464 0
-35.6635 194.406 0
-37.6563 212.277 0
-33.8733 175.919 0
-35.6635 194.406 0
-51.8315 176.374 0
-53.0135 194.923 0
-35.6635 194.406 0
-37.6563 212.277 0
-53.0135 194.923 0
-54.3376 212.855 0
-20.4953 211.464 0
-23.4225 228.567 0
-37.6563 212.277 0
-39.8551 229.461 0
-23.4225 228.567 0
-26.628 244.908 0
-39.8551 229.461 0
-42.2621 245.884 0
-37.6563 212.277 0
-39.8551 229.461 0
-54.3376 212.855 0
-55.8025 230.098 0
-39.8551 229.461 0
-42.2621 245.884 0
-55.8025 230.098 0
-57.4072 246.58 0
-51.8315 176.374 0
-53.0135 194.923 0
-69.4712 176.624 0
-70.0441 195.221 0
-53.0135 194.923 0
-54.3376 212.855 0
-70.0441 195.221 0