# vtk DataFile Version 3.0
#This file was generated by the deal.II library on 2020/9/2 at 8:38:45
ASCII
DATASET UNSTRUCTURED_GRID

POINTS 1536 double
5 0 0
5.125 0 0
5 0.125 0
5.125 0.125 0
5.125 0 0
5.25 0 0
5.125 0.125 0
5.25 0.125 0
5 0.125 0
5.125 0.125 0
5 0.25 0
5.125 0.25 0
5.125 0.125 0
5.25 0.125 0
5.125 0.25 0
5.25 0.25 0
5.25 0 0
5.375 0 0
5.25 0.125 0
5.375 0.125 0
5.375 0 0
5.5 0 0
5.375 0.125 0
5.5 0.125 0
5.25 0.125 0
5.375 0.125 0
5.25 0.25 0
5.375 0.25 0
5.375 0.125 0
5.5 0.125 0
5.375 0.25 0
5.5 0.25 0
5 0.25 0
5.125 0.25 0
5 0.375 0
5.125 0.375 0
5.125 0.25 0
5.25 0.25 0
5.125 0.375 0
5.25 0.375 0
5 0.375 0
5.125 0.375 0
5 0.5 0
5.125 0.5 0
5.125 0.375 0
5.25 0.375 0
5.125 0.5 0
5.25 0.5 0
5.25 0.25 0
5.375 0.25 0
5.25 0.375 0
5.375 0.375 0
5.375 0.25 0
5.5 0.25 0
5.375 0.375 0
5.5 0.375 0
5.25 0.375 0
5.375 0.375 0
5.25 0.5 0
5.375 0.5 0
5.375 0.375 0
5.5 0.375 0
5.375 0.5 0
5.5 0.5 0
5.5 0 0
5.625 0 0
5.5 0.125 0
5.625 0.125 0
5.625 0 0
5.75 0 0
5.625 0.125 0
5.75 0.125 0
5.5 0.125 0
5.625 0.125 0
5.5 0.25 0
5.625 0.25 0
5.625 0.125 0
5.75 0.125 0
5.625 0.25 0
5.75 0.25 0
5.75 0 0
5.875 0 0
5.75 0.125 0
5.875 0.125 0
5.875 0 0
6 0 0
5.875 0.125 0
6 0.125 0
5.75 0.125 0
5.875 0.125 0
5.75 0.25 0
5.875 0.25 0
5.875 0.125 0
6 0.125 0
5.875 0.25 0
6 0.25 0
5.5 0.25 0
5.625 0.25 0
5.5 0.375 0
5.625 0.375 0
5.625 0.25 0
5.75 0.25 0
5.625 0.375 0
5.75 0.375 0
5.5 0.375 0
5.625 0.375 0
5.5 0.5 0
5.625 0.5 0
5.625 0.375 0
5.75 0.375 0
5.625 0.5 0
5.75 0.5 0
5.75 0.25 0
5.875 0.25 0
5.75 0.375 0
5.875 0.375 0
5.875 0.25 0
6 0.25 0
5.875 0.375 0
6 0.375 0
5.75 0.375 0
5.875 0.375 0
5.75 0.5 0
5.875 0.5 0
5.875 0.375 0
6 0.375 0
5.875 0.5 0
6 0.5 0
5 0.5 0
5.125 0.5 0
5 0.625 0
5.125 0.625 0
5.125 0.5 0
5.25 0.5 0
5.125 0.625 0
5.25 0.625 0
5 0.625 0
5.125 0.625 0
5 0.75 0
5.125 0.75 0
5.125 0.625 0
5.25 0.625 0
5.125 0.75 0
5.25 0.75 0
5.25 0.5 0
5.375 0.5 0
5.25 0.625 0
5.375 0.625 0
5.375 0.5 0
5.5 0.5 0
5.375 0.625 0
5.5 0.625 0
5.25 0.625 0
5.375 0.625 0
5.25 0.75 0
5.375 0.75 0
5.375 0.625 0
5.5 0.625 0
5.375 0.75 0
5.5 0.75 0
5 0.75 0
5.125 0.75 0
5 0.875 0
5.125 0.875 0
5.125 0.75 0
5.25 0.75 0
5.125 0.875 0
5.25 0.875 0
5 0.875 0
5.125 0.875 0
5 1 0
5.125 1 0
5.125 0.875 0
5.25 0.875 0
5.125 1 0
5.25 1 0
5.25 0.75 0
5.375 0.75 0
5.25 0.875 0
5.375 0.875 0
5.375 0.75 0
5.5 0.75 0
5.375 0.875 0
5.5 0.875 0
5.25 0.875 0
5.375 0.875 0
5.25 1 0
5.375 1 0
5.375 0.875 0
5.5 0.875 0
5.375 1 0
5.5 1 0
5.5 0.5 0
5.625 0.5 0
5.5 0.625 0
5.625 0.625 0
5.625 0.5 0
5.75 0.5 0
5.625 0.625 0
5.75 0.625 0
5.5 0.625 0
5.625 0.625 0
5.5 0.75 0
5.625 0.75 0
5.625 0.625 0
5.75 0.625 0
5.625 0.75 0
5.75 0.75 0
5.75 0.5 0
5.875 0.5 0
5.75 0.625 0
5.875 0.625 0
5.875 0.5 0
6 0.5 0
5.875 0.625 0
6 0.625 0
5.75 0.625 0
5.875 0.625 0
5.75 0.75 0
5.875 0.75 0
5.875 0.625 0
6 0.625 0
5.875 0.75 0
6 0.75 0
5.5 0.75 0
5.625 0.75 0
5.5 0.875 0
5.625 0.875 0
5.625 0.75 0
5.75 0.75 0
5.625 0.875 0
5.75 0.875 0
5.5 0.875 0
5.625 0.875 0
5.5 1 0
5.625 1 0
5.625 0.875 0
5.75 0.875 0
5.625 1 0
5.75 1 0
5.75 0.75 0
5.875 0.75 0
5.75 0.875 0
5.875 0.875 0
5.875 0.75 0
6 0.75 0
5.875 0.875 0
6 0.875 0
5.75 0.875 0
5.875 0.875 0
5.75 1 0
5.875 1 0
5.875 0.875 0
6 0.875 0
5.875 1 0
6 1 0
4 0 0
4.125 0 0
4 0.125 0
4.125 0.125 0
4.125 0 0
4.25 0 0
4.125 0.125 0
4.25 0.125 0
4 0.125 0
4.125 0.125 0
4 0.25 0
4.125 0.25 0
4.125 0.125 0
4.25 0.125 0
4.125 0.25 0
4.25 0.25 0
4.25 0 0
4.375 0 0
4.25 0.125 0
4.375 0.125 0
4.375 0 0
4.5 0 0
4.375 0.125 0
4.5 0.125 0
4.25 0.125 0
4.375 0.125 0
4.25 0.25 0
4.375 0.25 0
4.375 0.125 0
4.5 0.125 0
4.375 0.25 0
4.5 0.25 0
4 0.25 0
4.125 0.25 0
4 0.375 0
4.125 0.375 0
4.125 0.25 0
4.25 0.25 0
4.125 0.375 0
4.25 0.375 0
4 0.375 0
4.125 0.375 0
4 0.5 0
4.125 0.5 0
4.125 0.375 0
4.25 0.375 0
4.125 0.5 0
4.25 0.5 0
4.25 0.25 0
4.375 0.25 0
4.25 0.375 0
4.375 0.375 0
4.375 0.25 0
4.5 0.25 0
4.375 0.375 0
4.5 0.375 0
4.25 0.375 0
4.375 0.375 0
4.25 0.5 0
4.375 0.5 0
4.375 0.375 0
4.5 0.375 0
4.375 0.5 0
4.5 0.5 0
4.5 0 0
4.625 0 0
4.5 0.125 0
4.625 0.125 0
4.625 0 0
4.75 0 0
4.625 0.125 0
4.75 0.125 0
4.5 0.125 0
4.625 0.125 0
4.5 0.25 0
4.625 0.25 0
4.625 0.125 0
4.75 0.125 0
4.625 0.25 0
4.75 0.25 0
4.75 0 0
4.875 0 0
4.75 0.125 0
4.875 0.125 0
4.875 0 0
5 0 0
4.875 0.125 0
5 0.125 0
4.75 0.125 0
4.875 0.125 0
4.75 0.25 0
4.875 0.25 0
4.875 0.125 0
5 0.125 0
4.875 0.25 0
5 0.25 0
4.5 0.25 0
4.625 0.25 0
4.5 0.375 0
4.625 0.375 0
4.625 0.25 0
4.75 0.25 0
4.625 0.375 0
4.75 0.375 0
4.5 0.375 0
4.625 0.375 0
4.5 0.5 0
4.625 0.5 0
4.625 0.375 0
4.75 0.375 0
4.625 0.5 0
4.75 0.5 0
4.75 0.25 0
4.875 0.25 0
4.75 0.375 0
4.875 0.375 0
4.875 0.25 0
5 0.25 0
4.875 0.375 0
5 0.375 0
4.75 0.375 0
4.875 0.375 0
4.75 0.5 0
4.875 0.5 0
4.875 0.375 0
5 0.375 0
4.875 0.5 0
5 0.5 0
4 0.5 0
4.125 0.5 0
4 0.625 0
4.125 0.625 0
4.125 0.5 0
4.25 0.5 0
4.125 0.625 0
4.25 0.625 0
4 0.625 0
4.125 0.625 0
4 0.75 0
4.125 0.75 0
4.125 0.625 0
4.25 0.625 0
4.125 0.75 0
4.25 0.75 0
4.25 0.5 0
4.375 0.5 0
4.25 0.625 0
4.375 0.625 0
4.375 0.5 0
4.5 0.5 0
4.375 0.625 0
4.5 0.625 0
4.25 0.625 0
4.375 0.625 0
4.25 0.75 0
4.375 0.75 0
4.375 0.625 0
4.5 0.625 0
4.375 0.75 0
4.5 0.75 0
4 0.75 0
4.125 0.75 0
4 0.875 0
4.125 0.875 0
4.125 0.75 0
4.25 0.75 0
4.125 0.875 0
4.25 0.875 0
4 0.875 0
4.125 0.875 0
4 1 0
4.125 1 0
4.125 0.875 0
4.25 0.875 0
4.125 1 0
4.25 1 0
4.25 0.75 0
4.375 0.75 0
4.25 0.875 0
4.375 0.875 0
4.375 0.75 0
4.5 0.75 0
4.375 0.875 0
4.5 0.875 0
4.25 0.875 0
4.375 0.875 0
4.25 1 0
4.375 1 0
4.375 0.875 0
4.5 0.875 0
4.375 1 0
4.5 1 0
4.5 0.5 0
4.625 0.5 0
4.5 0.625 0
4.625 0.625 0
4.625 0.5 0
4.75 0.5 0
4.625 0.625 0
4.75 0.625 0
4.5 0.625 0
4.625 0.625 0
4.5 0.75 0
4.625 0.75 0
4.625 0.625 0
4.75 0.625 0
4.625 0.75 0
4.75 0.75 0
4.75 0.5 0
4.875 0.5 0
4.75 0.625 0
4.875 0.625 0
4.875 0.5 0
5 0.5 0
4.875 0.625 0
5 0.625 0
4.75 0.625 0
4.875 0.625 0
4.75 0.75 0
4.875 0.75 0
4.875 0.625 0
5 0.625 0
4.875 0.75 0
5 0.75 0
4.5 0.75 0
4.625 0.75 0
4.5 0.875 0
4.625 0.875 0
4.625 0.75 0
4.75 0.75 0
4.625 0.875 0
4.75 0.875 0
4.5 0.875 0
4.625 0.875 0
4.5 1 0
4.625 1 0
4.625 0.875 0
4.75 0.875 0
4.625 1 0
4.75 1 0
4.75 0.75 0
4.875 0.75 0
4.75 0.875 0
4.875 0.875 0
4.875 0.75 0
5 0.75 0
4.875 0.875 0
5 0.875 0
4.75 0.875 0
4.875 0.875 0
4.75 1 0
4.875 1 0
4.875 0.875 0
5 0.875 0
4.875 1 0
5 1 0
3 0 0
3.125 0 0
3 0.125 0
3.125 0.125 0
3.125 0 0
3.25 0 0
3.125 0.125 0
3.25 0.125 0
3 0.125 0
3.125 0.125 0
3 0.25 0
3.125 0.25 0
3.125 0.125 0
3.25 0.125 0
3.125 0.25 0
3.25 0.25 0
3.25 0 0
3.375 0 0
3.25 0.125 0
3.375 0.125 0
3.375 0 0
3.5 0 0
3.375 0.125 0
3.5 0.125 0
3.25 0.125 0
3.375 0.125 0
3.25 0.25 0
3.375 0.25 0
3.375 0.125 0
3.5 0.125 0
3.375 0.25 0
3.5 0.25 0
3 0.25 0
3.125 0.25 0
3 0.375 0
3.125 0.375 0
3.125 0.25 0
3.25 0.25 0
3.125 0.375 0
3.25 0.375 0
3 0.375 0
3.125 0.375 0
3 0.5 0
3.125 0.5 0
3.125 0.375 0
3.25 0.375 0
3.125 0.5 0
3.25 0.5 0
3.25 0.25 0
3.375 0.25 0
3.25 0.375 0
3.375 0.375 0
3.375 0.25 0
3.5 0.25 0
3.375 0.375 0
3.5 0.375 0
3.25 0.375 0
3.375 0.375 0
3.25 0.5 0
3.375 0.5 0
3.375 0.375 0
3.5 0.375 0
3.375 0.5 0
3.5 0.5 0
3.5 0 0
3.625 0 0
3.5 0.125 0
3.625 0.125 0
3.625 0 0
3.75 0 0
3.625 0.125 0
3.75 0.125 0
3.5 0.125 0
3.625 0.125 0
3.5 0.25 0
3.625 0.25 0
3.625 0.125 0
3.75 0.125 0
3.625 0.25 0
3.75 0.25 0
3.75 0 0
3.875 0 0
3.75 0.125 0
3.875 0.125 0
3.875 0 0
4 0 0
3.875 0.125 0
4 0.125 0
3.75 0.125 0
3.875 0.125 0
3.75 0.25 0
3.875 0.25 0
3.875 0.125 0
4 0.125 0
3.875 0.25 0
4 0.25 0
3.5 0.25 0
3.625 0.25 0
3.5 0.375 0
3.625 0.375 0
3.625 0.25 0
3.75 0.25 0
3.625 0.375 0
3.75 0.375 0
3.5 0.375 0
3.625 0.375 0
3.5 0.5 0
3.625 0.5 0
3.625 0.375 0
3.75 0.375 0
3.625 0.5 0
3.75 0.5 0
3.75 0.25 0
3.875 0.25 0
3.75 0.375 0
3.875 0.375 0
3.875 0.25 0
4 0.25 0
3.875 0.375 0
4 0.375 0
3.75 0.375 0
3.875 0.375 0
3.75 0.5 0
3.875 0.5 0
3.875 0.375 0
4 0.375 0
3.875 0.5 0
4 0.5 0
3 0.5 0
3.125 0.5 0
3 0.625 0
3.125 0.625 0
3.125 0.5 0
3.25 0.5 0
3.125 0.625 0
3.25 0.625 0
3 0.625 0
3.125 0.625 0
3 0.75 0
3.125 0.75 0
3.125 0.625 0
3.25 0.625 0
3.125 0.75 0
3.25 0.75 0
3.25 0.5 0
3.375 0.5 0
3.25 0.625 0
3.375 0.625 0
3.375 0.5 0
3.5 0.5 0
3.375 0.625 0
3.5 0.625 0
3.25 0.625 0
3.375 0.625 0
3.25 0.75 0
3.375 0.75 0
3.375 0.625 0
3.5 0.625 0
3.375 0.75 0
3.5 0.75 0
3 0.75 0
3.125 0.75 0
3 0.875 0
3.125 0.875 0
3.125 0.75 0
3.25 0.75 0
3.125 0.875 0
3.25 0.875 0
3 0.875 0
3.125 0.875 0
3 1 0
3.125 1 0
3.125 0.875 0
3.25 0.875 0
3.125 1 0
3.25 1 0
3.25 0.75 0
3.375 0.75 0
3.25 0.875 0
3.375 0.875 0
3.375 0.75 0
3.5 0.75 0
3.375 0.875 0
3.5 0.875 0
3.25 0.875 0
3.375 0.875 0
3.25 1 0
3.375 1 0
3.375 0.875 0
3.5 0.875 0
3.375 1 0
3.5 1 0
3.5 0.5 0
3.625 0.5 0
3.5 0.625 0
3.625 0.625 0
3.625 0.5 0
3.75 0.5 0
3.625 0.625 0
3.75 0.625 0
3.5 0.625 0
3.625 0.625 0
3.5 0.75 0
3.625 0.75 0
3.625 0.625 0
3.75 0.625 0
3.625 0.75 0
3.75 0.75 0
3.75 0.5 0
3.875 0.5 0
3.75 0.625 0
3.875 0.625 0
3.875 0.5 0
4 0.5 0
3.875 0.625 0
4 0.625 0
3.75 0.625 0
3.875 0.625 0
3.75 0.75 0
3.875 0.75 0
3.875 0.625 0
4 0.625 0
3.875 0.75 0
4 0.75 0
3.5 0.75 0
3.625 0.75 0
3.5 0.875 0
3.625 0.875 0
3.625 0.75 0
3.75 0.75 0
3.625 0.875 0
3.75 0.875 0
3.5 0.875 0
3.625 0.875 0
3.5 1 0
3.625 1 0
3.625 0.875 0
3.75 0.875 0
3.625 1 0
3.75 1 0
3.75 0.75 0
3.875 0.75 0
3.75 0.875 0
3.875 0.875 0
3.875 0.75 0
4 0.75 0
3.875 0.875 0
4 0.875 0
3.75 0.875 0
3.875 0.875 0
3.75 1 0
3.875 1 0
3.875 0.875 0
4 0.875 0
3.875 1 0
4 1 0
2 0 0
2.125 0 0
2 0.125 0
2.125 0.125 0
2.125 0 0
2.25 0 0
2.125 0.125 0
2.25 0.125 0
2 0.125 0
2.125 0.125 0
2 0.25 0
2.125 0.25 0
2.125 0.125 0
2.25 0.125 0
2.125 0.25 0
2.25 0.25 0
2.25 0 0
2.375 0 0
2.25 0.125 0
2.375 0.125 0
2.375 0 0
2.5 0 0
2.375 0.125 0
2.5 0.125 0
2.25 0.125 0
2.375 0.125 0
2.25 0.25 0
2.375 0.25 0
2.375 0.125 0
2.5 0.125 0
2.375 0.25 0
2.5 0.25 0
2 0.25 0
2.125 0.25 0
2 0.375 0
2.125 0.375 0
2.125 0.25 0
2.25 0.25 0
2.125 0.375 0
2.25 0.375 0
2 0.375 0
2.125 0.375 0
2 0.5 0
2.125 0.5 0
2.125 0.375 0
2.25 0.375 0
2.125 0.5 0
2.25 0.5 0
2.25 0.25 0
2.375 0.25 0
2.25 0.375 0
2.375 0.375 0
2.375 0.25 0
[...]
POINT_DATA 1536
VECTORS displacements double
22.6003 -25.0474 0
22.9367 -22.3597 0
19.9998 -25.1503 0
20.2517 -22.4516 0
22.9367 -22.3597 0
23.2385 -19.5954 0
20.2517 -22.4516 0
20.4756 -19.6768 0
19.9998 -25.1503 0
20.2517 -22.4516 0
17.4745 -25.2215 0
17.6382 -22.5133 0
20.2517 -22.4516 0
20.4756 -19.6768 0
17.6382 -22.5133 0
17.7792 -19.7281 0
23.2385 -19.5954 0
23.5107 -16.7623 0
20.4756 -19.6768 0
20.6725 -16.834 0
23.5107 -16.7623 0
23.7628 -13.8633 0
20.6725 -16.834 0
20.8428 -13.9273 0
20.4756 -19.6768 0
20.6725 -16.834 0
17.7792 -19.7281 0
17.8948 -16.8739 0
20.6725 -16.834 0
20.8428 -13.9273 0
17.8948 -16.8739 0
17.9803 -13.9536 0
17.4745 -25.2215 0
17.6382 -22.5133 0
15.0004 -25.2604 0
15.0766 -22.5439 0
17.6382 -22.5133 0
17.7792 -19.7281 0
15.0766 -22.5439 0
15.1373 -19.7491 0
15.0004 -25.2604 0
15.0766 -22.5439 0
12.5541 -25.2682 0
12.5461 -22.5461 0
15.0766 -22.5439 0
15.1373 -19.7491 0
12.5461 -22.5461 0
12.5324 -19.7445 0
17.7792 -19.7281 0
17.8948 -16.8739 0
15.1373 -19.7491 0
15.179 -16.8839 0
17.8948 -16.8739 0
17.9803 -13.9536 0
15.179 -16.8839 0
15.198 -13.953 0
15.1373 -19.7491 0
15.179 -16.8839 0
12.5324 -19.7445 0
12.5111 -16.8729 0
15.179 -16.8839 0
15.198 -13.953 0
12.5111 -16.8729 0
12.4816 -13.9399 0
23.7628 -13.8633 0
24.0122 -10.8925 0
20.8428 -13.9273 0
20.9838 -10.948 0
24.0122 -10.8925 0
24.2946 -7.80084 0
20.9838 -10.948 0
21.0803 -7.86678 0
20.8428 -13.9273 0
20.9838 -10.948 0
17.9803 -13.9536 0
18.0272 -10.9609 0
20.9838 -10.948 0
21.0803 -7.86678 0
18.0272 -10.9609 0
18.0236 -7.86225 0
24.2946 -7.80084 0
24.6525 -4.51917 0
21.0803 -7.86678 0
21.0682 -4.50449 0
24.6525 -4.51917 0
24.9863 0 0
21.0682 -4.50449 0
21.1582 -0.928836 0
21.0803 -7.86678 0
21.0682 -4.50449 0
18.0236 -7.86225 0
18.0191 -4.64325 0
21.0682 -4.50449 0
21.1582 -0.928836 0
18.0191 -4.64325 0
18.1073 -1.51663 0
17.9803 -13.9536 0
18.0272 -10.9609 0
15.198 -13.953 0
15.1923 -10.9556 0
18.0272 -10.9609 0
18.0236 -7.86225 0
15.1923 -10.9556 0
15.1761 -7.89538 0
15.198 -13.953 0
15.1923 -10.9556 0
12.4816 -13.9399 0
12.4491 -10.9569 0
15.1923 -10.9556 0
15.1761 -7.89538 0
12.4491 -10.9569 0
12.4282 -7.94799 0
18.0236 -7.86225 0
18.0191 -4.64325 0
15.1761 -7.89538 0
15.1875 -4.82287 0
18.0191 -4.64325 0
18.1073 -1.51663 0
15.1875 -4.82287 0
15.2549 -1.88432 0
15.1761 -7.89538 0
15.1875 -4.82287 0
12.4282 -7.94799 0
12.4382 -4.96871 0
15.1875 -4.82287 0
15.2549 -1.88432 0
12.4382 -4.96871 0
12.4825 -2.11373 0
12.5541 -25.2682 0
12.5461 -22.5461 0
10.1111 -25.2472 0
10.0226 -22.5232 0
12.5461 -22.5461 0
12.5324 -19.7445 0
10.0226 -22.5232 0
9.94048 -19.7197 0
10.1111 -25.2472 0
10.0226 -22.5232 0
7.64519 -25.1992 0
7.47838 -22.4781 0
10.0226 -22.5232 0
9.94048 -19.7197 0
7.47838 -22.4781 0
7.33165 -19.6779 0
12.5324 -19.7445 0
12.5111 -16.8729 0
9.94048 -19.7197 0
9.86463 -16.8478 0
12.5111 -16.8729 0
12.4816 -13.9399 0
9.86463 -16.8478 0
9.79682 -13.9215 0
9.94048 -19.7197 0
9.86463 -16.8478 0
7.33165 -19.6779 0
7.20603 -16.8117 0
9.86463 -16.8478 0
9.79682 -13.9215 0
7.20603 -16.8117 0
7.10363 -13.8967 0
7.64519 -25.1992 0
7.47838 -22.4781 0
5.12669 -25.1247 0
4.8819 -22.4117 0
7.47838 -22.4781 0
7.33165 -19.6779 0
4.8819 -22.4117 0
4.67128 -19.6203 0
5.12669 -25.1247 0
4.8819 -22.4117 0
2.52276 -25.0229 0
2.19734 -22.3228 0
4.8819 -22.4117 0
4.67128 -19.6203 0
2.19734 -22.3228 0
1.9198 -19.5455 0
7.33165 -19.6779 0
7.20603 -16.8117 0
4.67128 -19.6203 0
4.49718 -16.7646 0
7.20603 -16.8117 0
7.10363 -13.8967 0
4.49718 -16.7646 0
4.36187 -13.8633 0
4.67128 -19.6203 0
4.49718 -16.7646 0
1.9198 -19.5455 0
1.69499 -16.7054 0
4.49718 -16.7646 0
4.36187 -13.8633 0
1.69499 -16.7054 0
1.52769 -13.8213 0
12.4816 -13.9399 0
12.4491 -10.9569 0
9.79682 -13.9215 0
9.74279 -10.9601 0
12.4491 -10.9569 0
12.4282 -7.94799 0
9.74279 -10.9601 0
9.71204 -7.99358 0
9.79682 -13.9215 0
9.74279 -10.9601 0
7.10363 -13.8967 0
7.02799 -10.9561 0
9.74279 -10.9601 0
9.71204 -7.99358 0
7.02799 -10.9561 0
6.98306 -8.02031 0
12.4282 -7.94799 0
12.4382 -4.96871 0
9.71204 -7.99358 0
9.71172 -5.06791 0
12.4382 -4.96871 0
12.4825 -2.11373 0
9.71172 -5.06791 0
9.73469 -2.244 0
9.71204 -7.99358 0
9.71172 -5.06791 0
6.98306 -8.02031 0
6.96943 -5.12432 0
9.71172 -5.06791 0
9.73469 -2.244 0
6.96943 -5.12432 0
6.97538 -2.30207 0
7.10363 -13.8967 0
7.02799 -10.9561 0
4.36187 -13.8633 0
4.26653 -10.9406 0
7.02799 -10.9561 0
6.98306 -8.02031 0
4.26653 -10.9406 0
4.20973 -8.02598 0
4.36187 -13.8633 0
4.26653 -10.9406 0
1.52769 -13.8213 0
1.42014 -10.9167 0
4.26653 -10.9406 0
4.20973 -8.02598 0
1.42014 -10.9167 0
1.36786 -8.01886 0
6.98306 -8.02031 0
6.96943 -5.12432 0
4.20973 -8.02598 0
4.18578 -5.14739 0
6.96943 -5.12432 0
6.97538 -2.30207 0
4.18578 -5.14739 0
4.18161 -2.31581 0
4.20973 -8.02598 0
4.18578 -5.14739 0
1.36786 -8.01886 0
1.35487 -5.15139 0
4.18578 -5.14739 0
4.18161 -2.31581 0
1.35487 -5.15139 0
1.35508 -2.31564 0
18.5908 -42.63 0
19.2151 -40.9006 0
16.991 -42.8164 0
17.4585 -41.0774 0
19.2151 -40.9006 0
19.8056 -39.0195 0
17.4585 -41.0774 0
17.9012 -39.1865 0
16.991 -42.8164 0
17.4585 -41.0774 0
15.4761 -42.9481 0
15.7857 -41.2026 0
17.4585 -41.0774 0
17.9012 -39.1865 0
15.7857 -41.2026 0
16.0797 -39.305 0
19.8056 -39.0195 0
20.3617 -36.9954 0
17.9012 -39.1865 0
18.3185 -37.1524 0
20.3617 -36.9954 0
20.8827 -34.8372 0
18.3185 -37.1524 0
18.7096 -34.9839 0
17.9012 -39.1865 0
18.3185 -37.1524 0
16.0797 -39.305 0
16.3573 -37.264 0
18.3185 -37.1524 0
18.7096 -34.9839 0
16.3573 -37.264 0
16.6178 -35.0882 0
15.4761 -42.9481 0
15.7857 -41.2026 0
14.0124 -43.0247 0
14.1646 -41.2759 0
15.7857 -41.2026 0
16.0797 -39.305 0
14.1646 -41.2759 0
14.3099 -39.3748 0
14.0124 -43.0247 0
14.1646 -41.2759 0
12.5706 -43.0472 0
12.5665 -41.298 0
14.1646 -41.2759 0
14.3099 -39.3748 0
12.5665 -41.298 0
12.564 -39.3965 0
16.0797 -39.305 0
16.3573 -37.264 0
14.3099 -39.3748 0
14.4478 -37.33 0
16.3573 -37.264 0
16.6178 -35.0882 0
14.4478 -37.33 0
14.5775 -35.1499 0
14.3099 -39.3748 0
14.4478 -37.33 0
12.564 -39.3965 0
12.5626 -37.3509 0
14.4478 -37.33 0
14.5775 -35.1499 0
12.5626 -37.3509 0
12.5619 -35.1696 0
20.8827 -34.8372 0
21.3678 -32.5537 0
18.7096 -34.9839 0
19.0739 -32.6898 0
21.3678 -32.5537 0
21.8162 -30.1544 0
19.0739 -32.6898 0
19.4107 -30.2796 0
18.7096 -34.9839 0
19.0739 -32.6898 0
16.6178 -35.0882 0
16.8604 -32.7865 0
19.0739 -32.6898 0
19.4107 -30.2796 0
16.8604 -32.7865 0
17.0846 -30.3683 0
21.8162 -30.1544 0
22.227 -27.649 0
19.4107 -30.2796 0
19.7194 -27.7631 0
22.227 -27.649 0
22.6003 -25.0474 0
19.7194 -27.7631 0
19.9998 -25.1503 0
19.4107 -30.2796 0
19.7194 -27.7631 0
17.0846 -30.3683 0
17.2896 -27.8433 0
19.7194 -27.7631 0
19.9998 -25.1503 0
17.2896 -27.8433 0
17.4745 -25.2215 0
16.6178 -35.0882 0
16.8604 -32.7865 0
14.5775 -35.1499 0
14.6984 -32.8436 0
16.8604 -32.7865 0
17.0846 -30.3683 0
14.6984 -32.8436 0
14.8098 -30.4201 0
14.5775 -35.1499 0
14.6984 -32.8436 0
12.5619 -35.1696 0
12.5613 -32.8615 0
14.6984 -32.8436 0
14.8098 -30.4201 0
12.5613 -32.8615 0
12.5603 -30.4356 0
17.0846 -30.3683 0
17.2896 -27.8433 0
14.8098 -30.4201 0
14.9109 -27.8891 0
17.2896 -27.8433 0
17.4745 -25.2215 0
14.9109 -27.8891 0
15.0004 -25.2604 0
14.8098 -30.4201 0
14.9109 -27.8891 0
12.5603 -30.4356 0
12.5583 -27.9013 0
14.9109 -27.8891 0
15.0004 -25.2604 0
12.5583 -27.9013 0
12.5541 -25.2682 0
12.5706 -43.0472 0
12.5665 -41.298 0
11.1247 -43.0167 0
10.9659 -41.2698 0
12.5665 -41.298 0
12.564 -39.3965 0
10.9659 -41.2698 0
10.8166 -39.3707 0
11.1247 -43.0167 0
10.9659 -41.2698 0
9.65055 -42.9343 0
9.33849 -41.1923 0
10.9659 -41.2698 0
10.8166 -39.3707 0
9.33849 -41.1923 0
9.04322 -39.298 0
12.564 -39.3965 0
12.5626 -37.3509 0
10.8166 -39.3707 0
10.6766 -37.3272 0
12.5626 -37.3509 0
12.5619 -35.1696 0
10.6766 -37.3272 0
10.5458 -35.1476 0
10.8166 -39.3707 0
10.6766 -37.3272 0
9.04322 -39.298 0
8.76504 -37.2592 0
10.6766 -37.3272 0
10.5458 -35.1476 0
8.76504 -37.2592 0
8.50434 -35.0843 0
9.65055 -42.9343 0
9.33849 -41.1923 0
8.12407 -42.8006 0
7.65942 -41.0656 0
9.33849 -41.1923 0
9.04322 -39.298 0
7.65942 -41.0656 0
7.2184 -39.1784 0
8.12407 -42.8006 0
7.65942 -41.0656 0
6.52047 -42.6155 0
5.90205 -40.8894 0
7.65942 -41.0656 0
7.2184 -39.1784 0
5.90205 -40.8894 0
5.3143 -39.0115 0
9.04322 -39.298 0
8.76504 -37.2592 0
7.2184 -39.1784 0
6.80201 -37.1469 0
8.76504 -37.2592 0
8.50434 -35.0843 0
6.80201 -37.1469 0
6.41125 -34.9793 0
7.2184 -39.1784 0
6.80201 -37.1469 0
5.3143 -39.0115 0
4.75894 -36.9898 0
6.80201 -37.1469 0
6.41125 -34.9793 0
4.75894 -36.9898 0
4.23752 -34.8324 0
12.5619 -35.1696 0
12.5613 -32.8615 0
10.5458 -35.1476 0
10.424 -32.8408 0
12.5613 -32.8615 0
12.5603 -30.4356 0
10.424 -32.8408 0
10.3112 -30.4156 0
10.5458 -35.1476 0
10.424 -32.8408 0
8.50434 -35.0843 0
8.26156 -32.7818 0
10.424 -32.8408 0
10.3112 -30.4156 0
8.26156 -32.7818 0
8.03716 -30.3607 0
12.5603 -30.4356 0
12.5583 -27.9013 0
10.3112 -30.4156 0
10.2071 -27.8813 0
12.5583 -27.9013 0
12.5541 -25.2682 0
10.2071 -27.8813 0
10.1111 -25.2472 0
10.3112 -30.4156 0
10.2071 -27.8813 0
8.03716 -30.3607 0
7.83157 -27.83 0
10.2071 -27.8813 0
10.1111 -25.2472 0
7.83157 -27.83 0
7.64519 -25.1992 0
8.50434 -35.0843 0
8.26156 -32.7818 0
6.41125 -34.9793 0
6.04717 -32.6843 0
8.26156 -32.7818 0
8.03716 -30.3607 0
6.04717 -32.6843 0
5.71088 -30.2708 0
6.41125 -34.9793 0
6.04717 -32.6843 0
4.23752 -34.8324 0
3.75151 -32.548 0
6.04717 -32.6843 0
5.71088 -30.2708 0
3.75151 -32.548 0
3.30245 -30.1454 0
8.03716 -30.3607 0
7.83157 -27.83 0
5.71088 -30.2708 0
5.40358 -27.7478 0
7.83157 -27.83 0
7.64519 -25.1992 0
5.40358 -27.7478 0
5.12669 -25.1247 0
5.71088 -30.2708 0
5.40358 -27.7478 0
3.30245 -30.1454 0
2.89213 -27.6339 0
5.40358 -27.7478 0
5.12669 -25.1247 0
2.89213 -27.6339 0
2.52276 -25.0229 0
12.4931 -49.7374 0
13.3338 -49.6151 0
12.4931 -49.9834 0
13.1067 -49.8594 0
13.3338 -49.6151 0
14.1643 -49.2513 0
13.1067 -49.8594 0
13.7138 -49.4909 0
12.4931 -49.9834 0
13.1067 -49.8594 0
12.4931 -50.1712 0
12.9065 -50.0447 0
13.1067 -49.8594 0
13.7138 -49.4909 0
12.9065 -50.0447 0
13.3134 -49.6695 0
14.1643 -49.2513 0
14.9759 -48.6547 0
13.7138 -49.4909 0
14.3088 -48.8872 0
14.9759 -48.6547 0
15.7618 -47.8376 0
14.3088 -48.8872 0
14.8874 -48.0617 0
13.7138 -49.4909 0
14.3088 -48.8872 0
13.3134 -49.6695 0
13.709 -49.057 0
14.3088 -48.8872 0
14.8874 -48.0617 0
13.709 -49.057 0
14.091 -48.2224 0
12.4931 -50.1712 0
12.9065 -50.0447 0
12.4931 -50.3184 0
12.7216 -50.187 0
12.9065 -50.0447 0
13.3134 -49.6695 0
12.7216 -50.187 0
12.941 -49.7993 0
12.4931 -50.3184 0
12.7216 -50.187 0
12.4931 -50.4371 0
12.5445 -50.2962 0
12.7216 -50.187 0
12.941 -49.7993 0
12.5445 -50.2962 0
12.5814 -49.8857 0
13.3134 -49.6695 0
13.709 -49.057 0
12.941 -49.7993 0
13.1464 -49.1717 0
13.709 -49.057 0
14.091 -48.2224 0
13.1464 -49.1717 0
13.3377 -48.3238 0
12.941 -49.7993 0
13.1464 -49.1717 0
12.5814 -49.8857 0
12.5986 -49.2334 0
13.1464 -49.1717 0
13.3377 -48.3238 0
12.5986 -49.2334 0
12.6001 -48.3666 0
15.7618 -47.8376 0
16.5179 -46.8139 0
14.8874 -48.0617 0
15.4465 -47.0288 0
16.5179 -46.8139 0
17.2419 -45.5968 0
15.4465 -47.0288 0
15.9843 -45.8023 0
14.8874 -48.0617 0
15.4465 -47.0288 0
14.091 -48.2224 0
14.4587 -47.1811 0
15.4465 -47.0288 0
15.9843 -45.8023 0
14.4587 -47.1811 0
14.8122 -45.9472 0
17.2419 -45.5968 0
17.933 -44.1986 0
15.9843 -45.8023 0
16.4994 -44.3946 0
17.933 -44.1986 0
18.5908 -42.63 0
16.4994 -44.3946 0
16.991 -42.8164 0
15.9843 -45.8023 0
16.4994 -44.3946 0
14.8122 -45.9472 0
15.1514 -44.5327 0
16.4994 -44.3946 0
16.991 -42.8164 0
15.1514 -44.5327 0
15.4761 -42.9481 0
14.091 -48.2224 0
14.4587 -47.1811 0
13.3377 -48.3238 0
13.5177 -47.2726 0
14.4587 -47.1811 0
14.8122 -45.9472 0
13.5177 -47.2726 0
13.6891 -46.0321 0
13.3377 -48.3238 0
13.5177 -47.2726 0
12.6001 -48.3666 0
12.5935 -47.304 0
13.5177 -47.2726 0
13.6891 -46.0321 0
12.5935 -47.304 0
12.5846 -46.0578 0
14.8122 -45.9472 0
15.1514 -44.5327 0
13.6891 -46.0321 0
13.8538 -44.613 0
15.1514 -44.5327 0
15.4761 -42.9481 0
13.8538 -44.613 0
14.0124 -43.0247 0
13.6891 -46.0321 0
13.8538 -44.613 0
12.5846 -46.0578 0
12.5766 -44.6363 0
13.8538 -44.613 0
14.0124 -43.0247 0
12.5766 -44.6363 0
12.5706 -43.0472 0
12.4931 -50.4371 0
12.5445 -50.2962 0
12.4931 -50.5367 0
12.3691 -50.3776 0
12.5445 -50.2962 0
12.5814 -49.8857 0
12.3691 -50.3776 0
12.2207 -49.9271 0
12.4931 -50.5367 0
12.3691 -50.3776 0
12.4931 -50.6269 0
12.1866 -50.4317 0
12.3691 -50.3776 0
12.2207 -49.9271 0
12.1866 -50.4317 0
11.8407 -49.9111 0
12.5814 -49.8857 0
12.5986 -49.2334 0
12.2207 -49.9271 0
12.0444 -49.2374 0
12.5986 -49.2334 0
12.6001 -48.3666 0
12.0444 -49.2374 0
11.8524 -48.3472 0
12.2207 -49.9271 0
12.0444 -49.2374 0
11.8407 -49.9111 0
11.456 -49.1705 0
12.0444 -49.2374 0
11.8524 -48.3472 0
11.456 -49.1705 0
11.0648 -48.2599 0
12.4931 -50.6269 0
12.1866 -50.4317 0
12.4931 -50.7282 0
11.9859 -50.4466 0
12.1866 -50.4317 0
11.8407 -49.9111 0
11.9859 -50.4466 0
11.3944 -49.8009 0
12.4931 -50.7282 0
11.9859 -50.4466 0
12.4931 -50.7996 0
11.5783 -50.364 0
11.9859 -50.4466 0
11.3944 -49.8009 0
11.5783 -50.364 0
10.7531 -49.5692 0
11.8407 -49.9111 0
11.456 -49.1705 0
11.3944 -49.8009 0
10.7838 -49.0184 0
11.456 -49.1705 0
11.0648 -48.2599 0
10.7838 -49.0184 0
10.2051 -48.1049 0
11.3944 -49.8009 0
10.7838 -49.0184 0
10.7531 -49.5692 0
9.99398 -48.799 0
10.7838 -49.0184 0
10.2051 -48.1049 0
9.99398 -48.799 0
9.25706 -47.8893 0
12.6001 -48.3666 0
12.5935 -47.304 0
11.8524 -48.3472 0
11.6588 -47.2742 0
12.5935 -47.304 0
12.5846 -46.0578 0
11.6588 -47.2742 0
11.4715 -46.0249 0
11.8524 -48.3472 0
11.6588 -47.2742 0
11.0648 -48.2599 0
10.6866 -47.1823 0
11.6588 -47.2742 0
11.4715 -46.0249 0
10.6866 -47.1823 0
10.3246 -45.9342 0
12.5846 -46.0578 0
12.5766 -44.6363 0
11.4715 -46.0249 0
11.2933 -44.6039 0
12.5766 -44.6363 0
12.5706 -43.0472 0
11.2933 -44.6039 0
11.1247 -43.0167 0
11.4715 -46.0249 0
11.2933 -44.6039 0
10.3246 -45.9342 0
9.97926 -44.5169 0
11.2933 -44.6039 0
11.1247 -43.0167 0
9.97926 -44.5169 0
9.65055 -42.9343 0
11.0648 -48.2599 0
10.6866 -47.1823 0
10.2051 -48.1049 0
9.6517 -47.0301 0
10.6866 -47.1823 0
10.3246 -45.9342 0
9.6517 -47.0301 0
9.12074 -45.7875 0
10.2051 -48.1049 0
9.6517 -47.0301 0
9.25706 -47.8893 0
8.53858 -46.8215 0
9.6517 -47.0301 0
9.12074 -45.7875 0
8.53858 -46.8215 0
7.84117 -45.5861 0
10.3246 -45.9342 0
9.97926 -44.5169 0
9.12074 -45.7875 0
8.61143 -44.3765 0
9.97926 -44.5169 0
9.65055 -42.9343 0
8.61143 -44.3765 0
8.12407 -42.8006 0
9.12074 -45.7875 0
8.61143 -44.3765 0
7.84117 -45.5861 0
7.1676 -44.183 0
8.61143 -44.3765 0
8.12407 -42.8006 0
7.1676 -44.183 0
6.52047 -42.6155 0
6.3955 -42.63 0
7.05328 -44.1986 0
7.99525 -42.8164 0
8.48689 -44.3946 0
7.05328 -44.1986 0
7.74436 -45.5968 0
8.48689 -44.3946 0
9.00201 -45.8023 0
7.99525 -42.8164 0
8.48689 -44.3946 0
9.51021 -42.9481 0
9.8349 -44.5327 0
8.48689 -44.3946 0
9.00201 -45.8023 0
9.8349 -44.5327 0
10.1741 -45.9472 0
7.74436 -45.5968 0
8.46842 -46.8139 0
9.00201 -45.8023 0
9.53976 -47.0288 0
8.46842 -46.8139 0
9.22452 -47.8376 0
9.53976 -47.0288 0
10.0989 -48.0617 0
9.00201 -45.8023 0
9.53976 -47.0288 0
10.1741 -45.9472 0
10.5276 -47.1811 0
9.53976 -47.0288 0
10.0989 -48.0617 0
10.5276 -47.1811 0
10.8953 -48.2224 0
9.51021 -42.9481 0
9.8349 -44.5327 0
10.9739 -43.0247 0
11.1325 -44.613 0
9.8349 -44.5327 0
10.1741 -45.9472 0
11.1325 -44.613 0
11.2972 -46.0321 0
10.9739 -43.0247 0
11.1325 -44.613 0
12.4157 -43.0472 0
12.4097 -44.6363 0
11.1325 -44.613 0
11.2972 -46.0321 0
12.4097 -44.6363 0
12.4017 -46.0578 0
10.1741 -45.9472 0
10.5276 -47.1811 0
11.2972 -46.0321 0
11.4686 -47.2726 0
10.5276 -47.1811 0
10.8953 -48.2224 0
11.4686 -47.2726 0
11.6486 -48.3238 0
11.2972 -46.0321 0
11.4686 -47.2726 0
12.4017 -46.0578 0
12.3928 -47.304 0
11.4686 -47.2726 0
11.6486 -48.3238 0
12.3928 -47.304 0
12.3862 -48.3666 0
9.22452 -47.8376 0
10.0104 -48.6547 0
10.0989 -48.0617 0
10.6775 -48.8872 0
10.0104 -48.6547 0
10.8219 -49.2513 0
10.6775 -48.8872 0
11.2725 -49.4909 0
10.0989 -48.0617 0
10.6775 -48.8872 0
10.8953 -48.2224 0
11.2773 -49.057 0
10.6775 -48.8872 0
11.2725 -49.4909 0
11.2773 -49.057 0
11.6729 -49.6695 0
10.8219 -49.2513 0
11.6525 -49.6151 0
11.2725 -49.4909 0
11.8796 -49.8594 0
11.6525 -49.6151 0
12.4931 -49.7374 0
11.8796 -49.8594 0
12.4931 -49.9834 0
11.2725 -49.4909 0
11.8796 -49.8594 0
11.6729 -49.6695 0
12.0798 -50.0447 0
11.8796 -49.8594 0
12.4931 -49.9834 0
12.0798 -50.0447 0
12.4931 -50.1712 0
10.8953 -48.2224 0
11.2773 -49.057 0
11.6486 -48.3238 0
11.8399 -49.1717 0
11.2773 -49.057 0
11.6729 -49.6695 0
11.8399 -49.1717 0
12.0453 -49.7993 0
11.6486 -48.3238 0
11.8399 -49.1717 0
12.3862 -48.3666 0
12.3877 -49.2334 0
11.8399 -49.1717 0
12.0453 -49.7993 0
12.3877 -49.2334 0
12.4049 -49.8857 0
11.6729 -49.6695 0
12.0798 -50.0447 0
12.0453 -49.7993 0
12.2647 -50.187 0
12.0798 -50.0447 0
12.4931 -50.1712 0
12.2647 -50.187 0
12.4931 -50.3184 0
12.0453 -49.7993 0
12.2647 -50.187 0
12.4049 -49.8857 0
12.4418 -50.2962 0
12.2647 -50.187 0
12.4931 -50.3184 0
12.4418 -50.2962 0
12.4931 -50.4371 0
12.4157 -43.0472 0
12.4097 -44.6363 0
13.8616 -43.0167 0
13.693 -44.6039 0
12.4097 -44.6363 0
12.4017 -46.0578 0
13.693 -44.6039 0
13.5148 -46.0249 0
13.8616 -43.0167 0
13.693 -44.6039 0
15.3357 -42.9343 0
15.007 -44.5169 0
13.693 -44.6039 0
13.5148 -46.0249 0
15.007 -44.5169 0
14.6617 -45.9342 0
12.4017 -46.0578 0
12.3928 -47.304 0
13.5148 -46.0249 0
13.3275 -47.2742 0
12.3928 -47.304 0
12.3862 -48.3666 0
13.3275 -47.2742 0
13.1339 -48.3472 0
13.5148 -46.0249 0
13.3275 -47.2742 0
14.6617 -45.9342 0
14.2997 -47.1823 0
13.3275 -47.2742 0
13.1339 -48.3472 0
14.2997 -47.1823 0
13.9215 -48.2599 0
15.3357 -42.9343 0
15.007 -44.5169 0
16.8622 -42.8006 0
16.3749 -44.3765 0
15.007 -44.5169 0
14.6617 -45.9342 0
16.3749 -44.3765 0
15.8655 -45.7875 0
16.8622 -42.8006 0
16.3749 -44.3765 0
18.4658 -42.6155 0
17.8187 -44.183 0
16.3749 -44.3765 0
15.8655 -45.7875 0
17.8187 -44.183 0
17.1451 -45.5861 0
14.6617 -45.9342 0
14.2997 -47.1823 0
15.8655 -45.7875 0
15.3346 -47.0301 0
14.2997 -47.1823 0
13.9215 -48.2599 0
15.3346 -47.0301 0
14.7812 -48.1049 0
15.8655 -45.7875 0
15.3346 -47.0301 0
17.1451 -45.5861 0
16.4477 -46.8215 0
15.3346 -47.0301 0
14.7812 -48.1049 0
16.4477 -46.8215 0
15.7292 -47.8893 0
12.3862 -48.3666 0
12.3877 -49.2334 0
13.1339 -48.3472 0
12.9419 -49.2374 0
12.3877 -49.2334 0
12.4049 -49.8857 0
12.9419 -49.2374 0
12.7656 -49.9271 0
13.1339 -48.3472 0
12.9419 -49.2374 0
13.9215 -48.2599 0
13.5302 -49.1705 0
12.9419 -49.2374 0
12.7656 -49.9271 0
13.5302 -49.1705 0
13.1456 -49.9111 0
12.4049 -49.8857 0
12.4418 -50.2962 0
12.7656 -49.9271 0
12.6171 -50.3776 0
12.4418 -50.2962 0
12.4931 -50.4371 0
12.6171 -50.3776 0
12.4931 -50.5367 0
12.7656 -49.9271 0
12.6171 -50.3776 0
13.1456 -49.9111 0
12.7997 -50.4317 0
12.6171 -50.3776 0
12.4931 -50.5367 0
12.7997 -50.4317 0
12.4931 -50.6269 0
13.9215 -48.2599 0
13.5302 -49.1705 0
14.7812 -48.1049 0
14.2025 -49.0184 0
13.5302 -49.1705 0
13.1456 -49.9111 0
14.2025 -49.0184 0
13.5919 -49.8009 0
14.7812 -48.1049 0
14.2025 -49.0184 0
15.7292 -47.8893 0
14.9923 -48.799 0
14.2025 -49.0184 0
13.5919 -49.8009 0
14.9923 -48.799 0
14.2332 -49.5692 0
13.1456 -49.9111 0
12.7997 -50.4317 0
13.5919 -49.8009 0
13.0004 -50.4466 0
12.7997 -50.4317 0
12.4931 -50.6269 0
13.0004 -50.4466 0
12.4931 -50.7282 0
13.5919 -49.8009 0
13.0004 -50.4466 0
14.2332 -49.5692 0
13.408 -50.364 0
13.0004 -50.4466 0
12.4931 -50.7282 0
13.408 -50.364 0
12.4931 -50.7996 0
2.38597 -25.0474 0
2.75924 -27.649 0
4.98654 -25.1503 0
5.26686 -27.7631 0
2.75924 -27.649 0
3.17013 -30.1544 0
5.26686 -27.7631 0
5.57559 -30.2796 0
4.98654 -25.1503 0
5.26686 -27.7631 0
7.51183 -25.2215 0
7.69669 -27.8433 0
5.26686 -27.7631 0
5.57559 -30.2796 0
7.69669 -27.8433 0
7.90164 -30.3683 0
3.17013 -30.1544 0
3.61845 -32.5537 0
5.57559 -30.2796 0
5.9124 -32.6898 0
3.61845 -32.5537 0
4.10356 -34.8372 0
5.9124 -32.6898 0
6.2767 -34.9839 0
5.57559 -30.2796 0
5.9124 -32.6898 0
7.90164 -30.3683 0
8.12584 -32.7865 0
5.9124 -32.6898 0
6.2767 -34.9839 0
8.12584 -32.7865 0
8.36854 -35.0882 0
7.51183 -25.2215 0
7.69669 -27.8433 0
9.98592 -25.2604 0
10.0754 -27.8891 0