# vtk DataFile Version 3.0
#This file was generated by the deal.II library on 2020/9/2 at 8:41:57
ASCII
DATASET UNSTRUCTURED_GRID

POINTS 1536 double
5 0 0
5.125 0 0
5 0.125 0
5.125 0.125 0
5.125 0 0
5.25 0 0
5.125 0.125 0
5.25 0.125 0
5 0.125 0
5.125 0.125 0
5 0.25 0
5.125 0.25 0
5.125 0.125 0
5.25 0.125 0
5.125 0.25 0
5.25 0.25 0
5.25 0 0
5.375 0 0
5.25 0.125 0
5.375 0.125 0
5.375 0 0
5.5 0 0
5.375 0.125 0
5.5 0.125 0
5.25 0.125 0
5.375 0.125 0
5.25 0.25 0
5.375 0.25 0
5.375 0.125 0
5.5 0.125 0
5.375 0.25 0
5.5 0.25 0
5 0.25 0
5.125 0.25 0
5 0.375 0
5.125 0.375 0
5.125 0.25 0
5.25 0.25 0
5.125 0.375 0
5.25 0.375 0
5 0.375 0
5.125 0.375 0
5 0.5 0
5.125 0.5 0
5.125 0.375 0
5.25 0.375 0
5.125 0.5 0
5.25 0.5 0
5.25 0.25 0
5.375 0.25 0
5.25 0.375 0
5.375 0.375 0
5.375 0.25 0
5.5 0.25 0
5.375 0.375 0
5.5 0.375 0
5.25 0.375 0
5.375 0.375 0
5.25 0.5 0
5.375 0.5 0
5.375 0.375 0
5.5 0.375 0
5.375 0.5 0
5.5 0.5 0
5.5 0 0
5.625 0 0
5.5 0.125 0
5.625 0.125 0
5.625 0 0
5.75 0 0
5.625 0.125 0
5.75 0.125 0
5.5 0.125 0
5.625 0.125 0
5.5 0.25 0
5.625 0.25 0
5.625 0.125 0
5.75 0.125 0
5.625 0.25 0
5.75 0.25 0
5.75 0 0
5.875 0 0
5.75 0.125 0
5.875 0.125 0
5.875 0 0
6 0 0
5.875 0.125 0
6 0.125 0
5.75 0.125 0
5.875 0.125 0
5.75 0.25 0
5.875 0.25 0
5.875 0.125 0
6 0.125 0
5.875 0.25 0
6 0.25 0
5.5 0.25 0
5.625 0.25 0
5.5 0.375 0
5.625 0.375 0
5.625 0.25 0
5.75 0.25 0
5.625 0.375 0
5.75 0.375 0
5.5 0.375 0
5.625 0.375 0
5.5 0.5 0
5.625 0.5 0
5.625 0.375 0
5.75 0.375 0
5.625 0.5 0
5.75 0.5 0
5.75 0.25 0
5.875 0.25 0
5.75 0.375 0
5.875 0.375 0
5.875 0.25 0
6 0.25 0
5.875 0.375 0
6 0.375 0
5.75 0.375 0
5.875 0.375 0
5.75 0.5 0
5.875 0.5 0
5.875 0.375 0
6 0.375 0
5.875 0.5 0
6 0.5 0
5 0.5 0
5.125 0.5 0
5 0.625 0
5.125 0.625 0
5.125 0.5 0
5.25 0.5 0
5.125 0.625 0
5.25 0.625 0
5 0.625 0
5.125 0.625 0
5 0.75 0
5.125 0.75 0
5.125 0.625 0
5.25 0.625 0
5.125 0.75 0
5.25 0.75 0
5.25 0.5 0
5.375 0.5 0
5.25 0.625 0
5.375 0.625 0
5.375 0.5 0
5.5 0.5 0
5.375 0.625 0
5.5 0.625 0
5.25 0.625 0
5.375 0.625 0
5.25 0.75 0
5.375 0.75 0
5.375 0.625 0
5.5 0.625 0
5.375 0.75 0
5.5 0.75 0
5 0.75 0
5.125 0.75 0
5 0.875 0
5.125 0.875 0
5.125 0.75 0
5.25 0.75 0
5.125 0.875 0
5.25 0.875 0
5 0.875 0
5.125 0.875 0
5 1 0
5.125 1 0
5.125 0.875 0
5.25 0.875 0
5.125 1 0
5.25 1 0
5.25 0.75 0
5.375 0.75 0
5.25 0.875 0
5.375 0.875 0
5.375 0.75 0
5.5 0.75 0
5.375 0.875 0
5.5 0.875 0
5.25 0.875 0
5.375 0.875 0
5.25 1 0
5.375 1 0
5.375 0.875 0
5.5 0.875 0
5.375 1 0
5.5 1 0
5.5 0.5 0
5.625 0.5 0
5.5 0.625 0
5.625 0.625 0
5.625 0.5 0
5.75 0.5 0
5.625 0.625 0
5.75 0.625 0
5.5 0.625 0
5.625 0.625 0
5.5 0.75 0
5.625 0.75 0
5.625 0.625 0
5.75 0.625 0
5.625 0.75 0
5.75 0.75 0
5.75 0.5 0
5.875 0.5 0
5.75 0.625 0
5.875 0.625 0
5.875 0.5 0
6 0.5 0
5.875 0.625 0
6 0.625 0
5.75 0.625 0
5.875 0.625 0
5.75 0.75 0
5.875 0.75 0
5.875 0.625 0
6 0.625 0
5.875 0.75 0
6 0.75 0
5.5 0.75 0
5.625 0.75 0
5.5 0.875 0
5.625 0.875 0
5.625 0.75 0
5.75 0.75 0
5.625 0.875 0
5.75 0.875 0
5.5 0.875 0
5.625 0.875 0
5.5 1 0
5.625 1 0
5.625 0.875 0
5.75 0.875 0
5.625 1 0
5.75 1 0
5.75 0.75 0
5.875 0.75 0
5.75 0.875 0
5.875 0.875 0
5.875 0.75 0
6 0.75 0
5.875 0.875 0
6 0.875 0
5.75 0.875 0
5.875 0.875 0
5.75 1 0
5.875 1 0
5.875 0.875 0
6 0.875 0
5.875 1 0
6 1 0
4 0 0
4.125 0 0
4 0.125 0
4.125 0.125 0
4.125 0 0
4.25 0 0
4.125 0.125 0
4.25 0.125 0
4 0.125 0
4.125 0.125 0
4 0.25 0
4.125 0.25 0
4.125 0.125 0
4.25 0.125 0
4.125 0.25 0
4.25 0.25 0
4.25 0 0
4.375 0 0
4.25 0.125 0
4.375 0.125 0
4.375 0 0
4.5 0 0
4.375 0.125 0
4.5 0.125 0
4.25 0.125 0
4.375 0.125 0
4.25 0.25 0
4.375 0.25 0
4.375 0.125 0
4.5 0.125 0
4.375 0.25 0
4.5 0.25 0
4 0.25 0
4.125 0.25 0
4 0.375 0
4.125 0.375 0
4.125 0.25 0
4.25 0.25 0
4.125 0.375 0
4.25 0.375 0
4 0.375 0
4.125 0.375 0
4 0.5 0
4.125 0.5 0
4.125 0.375 0
4.25 0.375 0
4.125 0.5 0
4.25 0.5 0
4.25 0.25 0
4.375 0.25 0
4.25 0.375 0
4.375 0.375 0
4.375 0.25 0
4.5 0.25 0
4.375 0.375 0
4.5 0.375 0
4.25 0.375 0
4.375 0.375 0
4.25 0.5 0
4.375 0.5 0
4.375 0.375 0
4.5 0.375 0
4.375 0.5 0
4.5 0.5 0
4.5 0 0
4.625 0 0
4.5 0.125 0
4.625 0.125 0
4.625 0 0
4.75 0 0
4.625 0.125 0
4.75 0.125 0
4.5 0.125 0
4.625 0.125 0
4.5 0.25 0
4.625 0.25 0
4.625 0.125 0
4.75 0.125 0
4.625 0.25 0
4.75 0.25 0
4.75 0 0
4.875 0 0
4.75 0.125 0
4.875 0.125 0
4.875 0 0
5 0 0
4.875 0.125 0
5 0.125 0
4.75 0.125 0
4.875 0.125 0
4.75 0.25 0
4.875 0.25 0
4.875 0.125 0
5 0.125 0
4.875 0.25 0
5 0.25 0
4.5 0.25 0
4.625 0.25 0
4.5 0.375 0
4.625 0.375 0
4.625 0.25 0
4.75 0.25 0
4.625 0.375 0
4.75 0.375 0
4.5 0.375 0
4.625 0.375 0
4.5 0.5 0
4.625 0.5 0
4.625 0.375 0
4.75 0.375 0
4.625 0.5 0
4.75 0.5 0
4.75 0.25 0
4.875 0.25 0
4.75 0.375 0
4.875 0.375 0
4.875 0.25 0
5 0.25 0
4.875 0.375 0
5 0.375 0
4.75 0.375 0
4.875 0.375 0
4.75 0.5 0
4.875 0.5 0
4.875 0.375 0
5 0.375 0
4.875 0.5 0
5 0.5 0
4 0.5 0
4.125 0.5 0
4 0.625 0
4.125 0.625 0
4.125 0.5 0
4.25 0.5 0
4.125 0.625 0
4.25 0.625 0
4 0.625 0
4.125 0.625 0
4 0.75 0
4.125 0.75 0
4.125 0.625 0
4.25 0.625 0
4.125 0.75 0
4.25 0.75 0
4.25 0.5 0
4.375 0.5 0
4.25 0.625 0
4.375 0.625 0
4.375 0.5 0
4.5 0.5 0
4.375 0.625 0
4.5 0.625 0
4.25 0.625 0
4.375 0.625 0
4.25 0.75 0
4.375 0.75 0
4.375 0.625 0
4.5 0.625 0
4.375 0.75 0
4.5 0.75 0
4 0.75 0
4.125 0.75 0
4 0.875 0
4.125 0.875 0
4.125 0.75 0
4.25 0.75 0
4.125 0.875 0
4.25 0.875 0
4 0.875 0
4.125 0.875 0
4 1 0
4.125 1 0
4.125 0.875 0
4.25 0.875 0
4.125 1 0
4.25 1 0
4.25 0.75 0
4.375 0.75 0
4.25 0.875 0
4.375 0.875 0
4.375 0.75 0
4.5 0.75 0
4.375 0.875 0
4.5 0.875 0
4.25 0.875 0
4.375 0.875 0
4.25 1 0
4.375 1 0
4.375 0.875 0
4.5 0.875 0
4.375 1 0
4.5 1 0
4.5 0.5 0
4.625 0.5 0
4.5 0.625 0
4.625 0.625 0
4.625 0.5 0
4.75 0.5 0
4.625 0.625 0
4.75 0.625 0
4.5 0.625 0
4.625 0.625 0
4.5 0.75 0
4.625 0.75 0
4.625 0.625 0
4.75 0.625 0
4.625 0.75 0
4.75 0.75 0
4.75 0.5 0
4.875 0.5 0
4.75 0.625 0
4.875 0.625 0
4.875 0.5 0
5 0.5 0
4.875 0.625 0
5 0.625 0
4.75 0.625 0
4.875 0.625 0
4.75 0.75 0
4.875 0.75 0
4.875 0.625 0
5 0.625 0
4.875 0.75 0
5 0.75 0
4.5 0.75 0
4.625 0.75 0
4.5 0.875 0
4.625 0.875 0
4.625 0.75 0
4.75 0.75 0
4.625 0.875 0
4.75 0.875 0
4.5 0.875 0
4.625 0.875 0
4.5 1 0
4.625 1 0
4.625 0.875 0
4.75 0.875 0
4.625 1 0
4.75 1 0
4.75 0.75 0
4.875 0.75 0
4.75 0.875 0
4.875 0.875 0
4.875 0.75 0
5 0.75 0
4.875 0.875 0
5 0.875 0
4.75 0.875 0
4.875 0.875 0
4.75 1 0
4.875 1 0
4.875 0.875 0
5 0.875 0
4.875 1 0
5 1 0
3 0 0
3.125 0 0
3 0.125 0
3.125 0.125 0
3.125 0 0
3.25 0 0
3.125 0.125 0
3.25 0.125 0
3 0.125 0
3.125 0.125 0
3 0.25 0
3.125 0.25 0
3.125 0.125 0
3.25 0.125 0
3.125 0.25 0
3.25 0.25 0
3.25 0 0
3.375 0 0
3.25 0.125 0
3.375 0.125 0
3.375 0 0
3.5 0 0
3.375 0.125 0
3.5 0.125 0
3.25 0.125 0
3.375 0.125 0
3.25 0.25 0
3.375 0.25 0
3.375 0.125 0
3.5 0.125 0
3.375 0.25 0
3.5 0.25 0
3 0.25 0
3.125 0.25 0
3 0.375 0
3.125 0.375 0
3.125 0.25 0
3.25 0.25 0
3.125 0.375 0
3.25 0.375 0
3 0.375 0
3.125 0.375 0
3 0.5 0
3.125 0.5 0
3.125 0.375 0
3.25 0.375 0
3.125 0.5 0
3.25 0.5 0
3.25 0.25 0
3.375 0.25 0
3.25 0.375 0
3.375 0.375 0
3.375 0.25 0
3.5 0.25 0
3.375 0.375 0
3.5 0.375 0
3.25 0.375 0
3.375 0.375 0
3.25 0.5 0
3.375 0.5 0
3.375 0.375 0
3.5 0.375 0
3.375 0.5 0
3.5 0.5 0
3.5 0 0
3.625 0 0
3.5 0.125 0
3.625 0.125 0
3.625 0 0
3.75 0 0
3.625 0.125 0
3.75 0.125 0
3.5 0.125 0
3.625 0.125 0
3.5 0.25 0
3.625 0.25 0
3.625 0.125 0
3.75 0.125 0
3.625 0.25 0
3.75 0.25 0
3.75 0 0
3.875 0 0
3.75 0.125 0
3.875 0.125 0
3.875 0 0
4 0 0
3.875 0.125 0
4 0.125 0
3.75 0.125 0
3.875 0.125 0
3.75 0.25 0
3.875 0.25 0
3.875 0.125 0
4 0.125 0
3.875 0.25 0
4 0.25 0
3.5 0.25 0
3.625 0.25 0
3.5 0.375 0
3.625 0.375 0
3.625 0.25 0
3.75 0.25 0
3.625 0.375 0
3.75 0.375 0
3.5 0.375 0
3.625 0.375 0
3.5 0.5 0
3.625 0.5 0
3.625 0.375 0
3.75 0.375 0
3.625 0.5 0
3.75 0.5 0
3.75 0.25 0
3.875 0.25 0
3.75 0.375 0
3.875 0.375 0
3.875 0.25 0
4 0.25 0
3.875 0.375 0
4 0.375 0
3.75 0.375 0
3.875 0.375 0
3.75 0.5 0
3.875 0.5 0
3.875 0.375 0
4 0.375 0
3.875 0.5 0
4 0.5 0
3 0.5 0
3.125 0.5 0
3 0.625 0
3.125 0.625 0
3.125 0.5 0
3.25 0.5 0
3.125 0.625 0
3.25 0.625 0
3 0.625 0
3.125 0.625 0
3 0.75 0
3.125 0.75 0
3.125 0.625 0
3.25 0.625 0
3.125 0.75 0
3.25 0.75 0
3.25 0.5 0
3.375 0.5 0
3.25 0.625 0
3.375 0.625 0
3.375 0.5 0
3.5 0.5 0
3.375 0.625 0
3.5 0.625 0
3.25 0.625 0
3.375 0.625 0
3.25 0.75 0
3.375 0.75 0
3.375 0.625 0
3.5 0.625 0
3.375 0.75 0
3.5 0.75 0
3 0.75 0
3.125 0.75 0
3 0.875 0
3.125 0.875 0
3.125 0.75 0
3.25 0.75 0
3.125 0.875 0
3.25 0.875 0
3 0.875 0
3.125 0.875 0
3 1 0
3.125 1 0
3.125 0.875 0
3.25 0.875 0
3.125 1 0
3.25 1 0
3.25 0.75 0
3.375 0.75 0
3.25 0.875 0
3.375 0.875 0
3.375 0.75 0
3.5 0.75 0
3.375 0.875 0
3.5 0.875 0
3.25 0.875 0
3.375 0.875 0
3.25 1 0
3.375 1 0
3.375 0.875 0
3.5 0.875 0
3.375 1 0
3.5 1 0
3.5 0.5 0
3.625 0.5 0
3.5 0.625 0
3.625 0.625 0
3.625 0.5 0
3.75 0.5 0
3.625 0.625 0
3.75 0.625 0
3.5 0.625 0
3.625 0.625 0
3.5 0.75 0
3.625 0.75 0
3.625 0.625 0
3.75 0.625 0
3.625 0.75 0
3.75 0.75 0
3.75 0.5 0
3.875 0.5 0
3.75 0.625 0
3.875 0.625 0
3.875 0.5 0
4 0.5 0
3.875 0.625 0
4 0.625 0
3.75 0.625 0
3.875 0.625 0
3.75 0.75 0
3.875 0.75 0
3.875 0.625 0
4 0.625 0
3.875 0.75 0
4 0.75 0
3.5 0.75 0
3.625 0.75 0
3.5 0.875 0
3.625 0.875 0
3.625 0.75 0
3.75 0.75 0
3.625 0.875 0
3.75 0.875 0
3.5 0.875 0
3.625 0.875 0
3.5 1 0
3.625 1 0
3.625 0.875 0
3.75 0.875 0
3.625 1 0
3.75 1 0
3.75 0.75 0
3.875 0.75 0
3.75 0.875 0
3.875 0.875 0
3.875 0.75 0
4 0.75 0
3.875 0.875 0
4 0.875 0
3.75 0.875 0
3.875 0.875 0
3.75 1 0
3.875 1 0
3.875 0.875 0
4 0.875 0
3.875 1 0
4 1 0
2 0 0
2.125 0 0
2 0.125 0
2.125 0.125 0
2.125 0 0
2.25 0 0
2.125 0.125 0
2.25 0.125 0
2 0.125 0
2.125 0.125 0
2 0.25 0
2.125 0.25 0
2.125 0.125 0
2.25 0.125 0
2.125 0.25 0
2.25 0.25 0
2.25 0 0
2.375 0 0
2.25 0.125 0
2.375 0.125 0
2.375 0 0
2.5 0 0
2.375 0.125 0
2.5 0.125 0
2.25 0.125 0
2.375 0.125 0
2.25 0.25 0
2.375 0.25 0
2.375 0.125 0
2.5 0.125 0
2.375 0.25 0
2.5 0.25 0
2 0.25 0
2.125 0.25 0
2 0.375 0
2.125 0.375 0
2.125 0.25 0
2.25 0.25 0
2.125 0.375 0
2.25 0.375 0
2 0.375 0
2.125 0.375 0
2 0.5 0
2.125 0.5 0
2.125 0.375 0
2.25 0.375 0
2.125 0.5 0
2.25 0.5 0
2.25 0.25 0
2.375 0.25 0
2.25 0.375 0
2.375 0.375 0
2.375 0.25 0
[...]
POINT_DATA 1536
VECTORS displacements double
39.4343 -46.2124 0
40.1652 -41.3084 0
34.7014 -46.443 0
35.2933 -41.5111 0
40.1652 -41.3084 0
40.9112 -36.2322 0
35.2933 -41.5111 0
35.8151 -36.4532 0
34.7014 -46.443 0
35.2933 -41.5111 0
30.6285 -46.6321 0
30.9983 -41.66 0
35.2933 -41.5111 0
35.8151 -36.4532 0
30.9983 -41.66 0
31.348 -36.5805 0
40.9112 -36.2322 0
41.5882 -30.9693 0
35.8151 -36.4532 0
36.3597 -31.1495 0
41.5882 -30.9693 0
42.2977 -25.5359 0
36.3597 -31.1495 0
36.8346 -25.7486 0
35.8151 -36.4532 0
36.3597 -31.1495 0
31.348 -36.5805 0
31.699 -31.2778 0
36.3597 -31.1495 0
36.8346 -25.7486 0
31.699 -31.2778 0
31.986 -25.8365 0
30.6285 -46.6321 0
30.9983 -41.66 0
26.6276 -46.6758 0
26.8599 -41.8036 0
30.9983 -41.66 0
31.348 -36.5805 0
26.8599 -41.8036 0
26.9961 -36.6506 0
26.6276 -46.6758 0
26.8599 -41.8036 0
22.7676 -46.7483 0
22.7492 -41.7615 0
26.8599 -41.8036 0
26.9961 -36.6506 0
22.7492 -41.7615 0
22.7924 -36.7001 0
31.348 -36.5805 0
31.699 -31.2778 0
26.9961 -36.6506 0
27.1208 -31.315 0
31.699 -31.2778 0
31.986 -25.8365 0
27.1208 -31.315 0
27.2756 -25.8477 0
26.9961 -36.6506 0
27.1208 -31.315 0
22.7924 -36.7001 0
22.716 -31.2756 0
27.1208 -31.315 0
27.2756 -25.8477 0
22.716 -31.2756 0
22.6698 -25.8113 0
42.2977 -25.5359 0
42.9418 -19.9321 0
36.8346 -25.7486 0
37.3394 -20.0788 0
42.9418 -19.9321 0
43.7238 -14.0775 0
37.3394 -20.0788 0
37.6923 -14.3236 0
36.8346 -25.7486 0
37.3394 -20.0788 0
31.986 -25.8365 0
32.2844 -20.1556 0
37.3394 -20.0788 0
37.6923 -14.3236 0
32.2844 -20.1556 0
32.496 -14.3585 0
43.7238 -14.0775 0
44.5336 -7.91133 0
37.6923 -14.3236 0
37.9251 -7.81491 0
44.5336 -7.91133 0
44.9588 0 0
37.9251 -7.81491 0
38.1429 -1.43605 0
37.6923 -14.3236 0
37.9251 -7.81491 0
32.496 -14.3585 0
32.5199 -8.14289 0
37.9251 -7.81491 0
38.1429 -1.43605 0
32.5199 -8.14289 0
32.6369 -2.31457 0
31.986 -25.8365 0
32.2844 -20.1556 0
27.2756 -25.8477 0
27.3661 -20.2188 0
32.2844 -20.1556 0
32.496 -14.3585 0
27.3661 -20.2188 0
27.3383 -14.42 0
27.2756 -25.8477 0
27.3661 -20.2188 0
22.6698 -25.8113 0
22.5739 -20.267 0
27.3661 -20.2188 0
27.3383 -14.42 0
22.5739 -20.267 0
22.4215 -14.6253 0
32.496 -14.3585 0
32.5199 -8.14289 0
27.3383 -14.42 0
27.3258 -8.61635 0
32.5199 -8.14289 0
32.6369 -2.31457 0
27.3258 -8.61635 0
27.3428 -2.81194 0
27.3383 -14.42 0
27.3258 -8.61635 0
22.4215 -14.6253 0
22.3264 -8.92872 0
27.3258 -8.61635 0
27.3428 -2.81194 0
22.3264 -8.92872 0
22.4162 -3.50768 0
22.7676 -46.7483 0
22.7492 -41.7615 0
18.8771 -46.71 0
18.6975 -41.7505 0
22.7492 -41.7615 0
22.7924 -36.7001 0
18.6975 -41.7505 0
18.4403 -36.5369 0
18.8771 -46.71 0
18.6975 -41.7505 0
14.8575 -46.5467 0
14.5327 -41.6049 0
18.6975 -41.7505 0
18.4403 -36.5369 0
14.5327 -41.6049 0
14.1424 -36.4344 0
22.7924 -36.7001 0
22.716 -31.2756 0
18.4403 -36.5369 0
18.3053 -31.2387 0
22.716 -31.2756 0
22.6698 -25.8113 0
18.3053 -31.2387 0
18.0733 -25.8185 0
18.4403 -36.5369 0
18.3053 -31.2387 0
14.1424 -36.4344 0
13.7276 -31.1761 0
18.3053 -31.2387 0
18.0733 -25.8185 0
13.7276 -31.1761 0
13.3577 -25.8029 0
14.8575 -46.5467 0
14.5327 -41.6049 0
10.6573 -46.323 0
10.056 -41.4047 0
14.5327 -41.6049 0
14.1424 -36.4344 0
10.056 -41.4047 0
9.50127 -36.3302 0
10.6573 -46.323 0
10.056 -41.4047 0
6.03887 -46.0953 0
5.38125 -41.187 0
10.056 -41.4047 0
9.50127 -36.3302 0
5.38125 -41.187 0
4.93013 -36.2758 0
14.1424 -36.4344 0
13.7276 -31.1761 0
9.50127 -36.3302 0
9.07195 -31.0911 0
13.7276 -31.1761 0
13.3577 -25.8029 0
9.07195 -31.0911 0
8.76192 -25.8501 0
9.50127 -36.3302 0
9.07195 -31.0911 0
4.93013 -36.2758 0
4.36365 -31.0495 0
9.07195 -31.0911 0
8.76192 -25.8501 0
4.36365 -31.0495 0
3.74914 -25.7212 0
22.6698 -25.8113 0
22.5739 -20.267 0
18.0733 -25.8185 0
17.7996 -20.3286 0
22.5739 -20.267 0
22.4215 -14.6253 0
17.7996 -20.3286 0
17.6431 -14.8037 0
18.0733 -25.8185 0
17.7996 -20.3286 0
13.3577 -25.8029 0
13.1448 -20.4167 0
17.7996 -20.3286 0
17.6431 -14.8037 0
13.1448 -20.4167 0
12.9392 -14.9136 0
22.4215 -14.6253 0
22.3264 -8.92872 0
17.6431 -14.8037 0
17.5717 -9.24712 0
22.3264 -8.92872 0
22.4162 -3.50768 0
17.5717 -9.24712 0
17.6443 -4.06475 0
17.6431 -14.8037 0
17.5717 -9.24712 0
12.9392 -14.9136 0
12.8512 -9.48865 0
17.5717 -9.24712 0
17.6443 -4.06475 0
12.8512 -9.48865 0
12.8806 -4.38698 0
13.3577 -25.8029 0
13.1448 -20.4167 0
8.76192 -25.8501 0
8.39163 -20.4019 0
13.1448 -20.4167 0
12.9392 -14.9136 0
8.39163 -20.4019 0
8.12932 -14.9447 0
8.76192 -25.8501 0
8.39163 -20.4019 0
3.74914 -25.7212 0
3.2888 -20.3086 0
8.39163 -20.4019 0
8.12932 -14.9447 0
3.2888 -20.3086 0
3.0114 -14.9048 0
12.9392 -14.9136 0
12.8512 -9.48865 0
8.12932 -14.9447 0
8.00292 -9.60183 0
12.8512 -9.48865 0
12.8806 -4.38698 0
8.00292 -9.60183 0
7.98095 -4.48987 0
8.12932 -14.9447 0
8.00292 -9.60183 0
3.0114 -14.9048 0
2.9194 -9.62034 0
8.00292 -9.60183 0
7.98095 -4.48987 0
2.9194 -9.62034 0
2.91383 -4.49613 0
32.2197 -77.8224 0
33.2555 -74.7206 0
29.3901 -78.1165 0
30.1194 -75.0148 0
33.2555 -74.7206 0
34.219 -71.3438 0
30.1194 -75.0148 0
30.8604 -71.618 0
29.3901 -78.1165 0
30.1194 -75.0148 0
27.0465 -78.3232 0
27.4724 -75.1957 0
30.1194 -75.0148 0
30.8604 -71.618 0
27.4724 -75.1957 0
27.9151 -71.8126 0
34.219 -71.3438 0
35.1689 -67.7403 0
30.8604 -71.618 0
31.5549 -67.9938 0
35.1689 -67.7403 0
36.1209 -63.8815 0
31.5549 -67.9938 0
32.1784 -64.1493 0
30.8604 -71.618 0
31.5549 -67.9938 0
27.9151 -71.8126 0
28.3811 -68.1381 0
31.5549 -67.9938 0
32.1784 -64.1493 0
28.3811 -68.1381 0
28.8664 -64.2849 0
27.0465 -78.3232 0
27.4724 -75.1957 0
24.9177 -78.4032 0
25.0522 -75.2806 0
27.4724 -75.1957 0
27.9151 -71.8126 0
25.0522 -75.2806 0
25.2183 -71.8678 0
24.9177 -78.4032 0
25.0522 -75.2806 0
22.813 -78.354 0
22.6913 -75.2341 0
25.0522 -75.2806 0
25.2183 -71.8678 0
22.6913 -75.2341 0
22.6383 -71.818 0
27.9151 -71.8126 0
28.3811 -68.1381 0
25.2183 -71.8678 0
25.4484 -68.2193 0
28.3811 -68.1381 0
28.8664 -64.2849 0
25.4484 -68.2193 0
25.655 -64.3422 0
25.2183 -71.8678 0
25.4484 -68.2193 0
22.6383 -71.818 0
22.6001 -68.2075 0
25.4484 -68.2193 0
25.655 -64.3422 0
22.6001 -68.2075 0
22.6292 -64.3156 0
36.1209 -63.8815 0
36.9998 -59.7397 0
32.1784 -64.1493 0
32.842 -59.9915 0
36.9998 -59.7397 0
37.8145 -55.4162 0
32.842 -59.9915 0
33.5136 -55.6535 0
32.1784 -64.1493 0
32.842 -59.9915 0
28.8664 -64.2849 0
29.3284 -60.2044 0
32.842 -59.9915 0
33.5136 -55.6535 0
29.3284 -60.2044 0
29.7785 -55.8455 0
37.8145 -55.4162 0
38.6362 -50.9275 0
33.5136 -55.6535 0
34.1241 -51.163 0
38.6362 -50.9275 0
39.4343 -46.2124 0
34.1241 -51.163 0
34.7014 -46.443 0
33.5136 -55.6535 0
34.1241 -51.163 0
29.7785 -55.8455 0
30.1951 -51.3124 0
34.1241 -51.163 0
34.7014 -46.443 0
30.1951 -51.3124 0
30.6285 -46.6321 0
28.8664 -64.2849 0
29.3284 -60.2044 0
25.655 -64.3422 0
25.9102 -60.2665 0
29.3284 -60.2044 0
29.7785 -55.8455 0
25.9102 -60.2665 0
26.1751 -55.9804 0
25.655 -64.3422 0
25.9102 -60.2665 0
22.6292 -64.3156 0
22.5791 -60.2556 0
25.9102 -60.2665 0
26.1751 -55.9804 0
22.5791 -60.2556 0
22.6336 -55.9629 0
29.7785 -55.8455 0
30.1951 -51.3124 0
26.1751 -55.9804 0
26.4143 -51.4623 0
30.1951 -51.3124 0
30.6285 -46.6321 0
26.4143 -51.4623 0
26.6276 -46.6758 0
26.1751 -55.9804 0
26.4143 -51.4623 0
22.6336 -55.9629 0
22.7305 -51.5021 0
26.4143 -51.4623 0
26.6276 -46.6758 0
22.7305 -51.5021 0
22.7676 -46.7483 0
22.813 -78.354 0
22.6913 -75.2341 0
20.6667 -78.1857 0
20.3164 -75.0624 0
22.6913 -75.2341 0
22.6383 -71.818 0
20.3164 -75.0624 0
20.0243 -71.7035 0
20.6667 -78.1857 0
20.3164 -75.0624 0
18.4341 -77.9361 0
17.9002 -74.843 0
20.3164 -75.0624 0
20.0243 -71.7035 0
17.9002 -74.843 0
17.3943 -71.5093 0
22.6383 -71.818 0
22.6001 -68.2075 0
20.0243 -71.7035 0
19.7894 -68.0957 0
22.6001 -68.2075 0
22.6292 -64.3156 0
19.7894 -68.0957 0
19.5427 -64.2444 0
20.0243 -71.7035 0
19.7894 -68.0957 0
17.3943 -71.5093 0
16.9095 -67.9354 0
19.7894 -68.0957 0
19.5427 -64.2444 0
16.9095 -67.9354 0
16.4829 -64.0852 0
18.4341 -77.9361 0
17.9002 -74.843 0
16.0894 -77.6628 0
15.3067 -74.5861 0
17.9002 -74.843 0
17.3943 -71.5093 0
15.3067 -74.5861 0
14.5831 -71.282 0
16.0894 -77.6628 0
15.3067 -74.5861 0
13.1879 -77.3597 0
12.2003 -74.2984 0
15.3067 -74.5861 0
14.5831 -71.282 0
12.2003 -74.2984 0
11.2111 -70.9934 0
17.3943 -71.5093 0
16.9095 -67.9354 0
14.5831 -71.282 0
13.8556 -67.7018 0
16.9095 -67.9354 0
16.4829 -64.0852 0
13.8556 -67.7018 0
13.1724 -63.9036 0
14.5831 -71.282 0
13.8556 -67.7018 0
11.2111 -70.9934 0
10.2728 -67.4319 0
13.8556 -67.7018 0
13.1724 -63.9036 0
10.2728 -67.4319 0
9.34927 -63.6401 0
22.6292 -64.3156 0
22.5791 -60.2556 0
19.5427 -64.2444 0
19.3987 -60.1675 0
22.5791 -60.2556 0
22.6336 -55.9629 0
19.3987 -60.1675 0
19.1695 -55.8889 0
19.5427 -64.2444 0
19.3987 -60.1675 0
16.4829 -64.0852 0
16.033 -60.046 0
19.3987 -60.1675 0
19.1695 -55.8889 0
16.033 -60.046 0
15.6382 -55.7529 0
22.6336 -55.9629 0
22.7305 -51.5021 0
19.1695 -55.8889 0
18.9799 -51.4032 0
22.7305 -51.5021 0
22.7676 -46.7483 0
18.9799 -51.4032 0
18.8771 -46.71 0
19.1695 -55.8889 0
18.9799 -51.4032 0
15.6382 -55.7529 0
15.2358 -51.2363 0
18.9799 -51.4032 0
18.8771 -46.71 0
15.2358 -51.2363 0
14.8575 -46.5467 0
16.4829 -64.0852 0
16.033 -60.046 0
13.1724 -63.9036 0
12.525 -59.8502 0
16.033 -60.046 0
15.6382 -55.7529 0
12.525 -59.8502 0
11.8717 -55.5509 0
13.1724 -63.9036 0
12.525 -59.8502 0
9.34927 -63.6401 0
8.44983 -59.5928 0
12.525 -59.8502 0
11.8717 -55.5509 0
8.44983 -59.5928 0
7.61213 -55.3102 0
15.6382 -55.7529 0
15.2358 -51.2363 0
11.8717 -55.5509 0
11.2643 -51.0515 0
15.2358 -51.2363 0
14.8575 -46.5467 0
11.2643 -51.0515 0
10.6573 -46.323 0
11.8717 -55.5509 0
11.2643 -51.0515 0
7.61213 -55.3102 0
6.79235 -50.8127 0
11.2643 -51.0515 0
10.6573 -46.323 0
6.79235 -50.8127 0
6.03887 -46.0953 0
22.4794 -89.5888 0
23.7764 -89.4098 0
22.4794 -89.9685 0
23.4377 -89.7881 0
23.7764 -89.4098 0
25.0628 -88.8779 0
23.4377 -89.7881 0
24.3934 -89.2525 0
22.4794 -89.9685 0
23.4377 -89.7881 0
22.4794 -90.6001 0
23.3648 -90.3845 0
23.4377 -89.7881 0
24.3934 -89.2525 0
23.3648 -90.3845 0
24.1728 -89.7311 0
25.0628 -88.8779 0
26.3302 -88.0071 0
24.3934 -89.2525 0
25.3418 -88.3742 0
26.3302 -88.0071 0
27.5905 -86.7771 0
25.3418 -88.3742 0
26.2292 -87.1302 0
24.3934 -89.2525 0
25.3418 -88.3742 0
24.1728 -89.7311 0
24.8454 -88.7302 0
25.3418 -88.3742 0
26.2292 -87.1302 0
24.8454 -88.7302 0
25.2833 -87.4327 0
22.4794 -90.6001 0
23.3648 -90.3845 0
22.4794 -91.2521 0
23.156 -91.0157 0
23.3648 -90.3845 0
24.1728 -89.7311 0
23.156 -91.0157 0
23.7584 -90.3286 0
22.4794 -91.2521 0
23.156 -91.0157 0
22.4794 -91.8842 0
22.9225 -91.6351 0
23.156 -91.0157 0
23.7584 -90.3286 0
22.9225 -91.6351 0
23.2739 -90.896 0
24.1728 -89.7311 0
24.8454 -88.7302 0
23.7584 -90.3286 0
24.1959 -89.1396 0
24.8454 -88.7302 0
25.2833 -87.4327 0
24.1959 -89.1396 0
24.4624 -87.7516 0
23.7584 -90.3286 0
24.1959 -89.1396 0
23.2739 -90.896 0
23.4389 -89.5468 0
24.1959 -89.1396 0
24.4624 -87.7516 0
23.4389 -89.5468 0
23.4532 -87.952 0
27.5905 -86.7771 0
28.8381 -85.114 0
26.2292 -87.1302 0
27.0396 -85.4609 0
28.8381 -85.114 0
30.0066 -83.0423 0
27.0396 -85.4609 0
27.8728 -83.3593 0
26.2292 -87.1302 0
27.0396 -85.4609 0
25.2833 -87.4327 0
25.7565 -85.6795 0
27.0396 -85.4609 0
27.8728 -83.3593 0
25.7565 -85.6795 0
26.2067 -83.5973 0
30.0066 -83.0423 0
31.1474 -80.6122 0
27.8728 -83.3593 0
28.6279 -80.9296 0
31.1474 -80.6122 0
32.2197 -77.8224 0
28.6279 -80.9296 0
29.3901 -78.1165 0
27.8728 -83.3593 0
28.6279 -80.9296 0
26.2067 -83.5973 0
26.6029 -81.098 0
28.6279 -80.9296 0
29.3901 -78.1165 0
26.6029 -81.098 0
27.0465 -78.3232 0
25.2833 -87.4327 0
25.7565 -85.6795 0
24.4624 -87.7516 0
24.6098 -85.8671 0
25.7565 -85.6795 0
26.2067 -83.5973 0
24.6098 -85.8671 0
24.7008 -83.7087 0
24.4624 -87.7516 0
24.6098 -85.8671 0
23.4532 -87.952 0
23.3624 -85.9899 0
24.6098 -85.8671 0
24.7008 -83.7087 0
23.3624 -85.9899 0
23.1762 -83.7047 0
26.2067 -83.5973 0
26.6029 -81.098 0
24.7008 -83.7087 0
24.8263 -81.1762 0
26.6029 -81.098 0
27.0465 -78.3232 0
24.8263 -81.1762 0
24.9177 -78.4032 0
24.7008 -83.7087 0
24.8263 -81.1762 0
23.1762 -83.7047 0
22.9972 -81.1916 0
24.8263 -81.1762 0
24.9177 -78.4032 0
22.9972 -81.1916 0
22.813 -78.354 0
22.4794 -91.8842 0
22.9225 -91.6351 0
22.4794 -92.5338 0
22.6639 -92.2272 0
22.9225 -91.6351 0
23.2739 -90.896 0
22.6639 -92.2272 0
22.7539 -91.4122 0
22.4794 -92.5338 0
22.6639 -92.2272 0
22.4794 -93.1116 0
22.2509 -92.8416 0
22.6639 -92.2272 0
22.7539 -91.4122 0
22.2509 -92.8416 0
21.9744 -91.6097 0
23.2739 -90.896 0
23.4389 -89.5468 0
22.7539 -91.4122 0
22.5862 -89.8351 0
23.4389 -89.5468 0
23.4532 -87.952 0
22.5862 -89.8351 0
22.3266 -88.0315 0
22.7539 -91.4122 0
22.5862 -89.8351 0
21.9744 -91.6097 0
21.5625 -89.9396 0
22.5862 -89.8351 0
22.3266 -88.0315 0
21.5625 -89.9396 0
20.9914 -87.9671 0
22.4794 -93.1116 0
22.2509 -92.8416 0
22.4794 -93.7663 0
21.8359 -93.0408 0
22.2509 -92.8416 0
21.9744 -91.6097 0
21.8359 -93.0408 0
21.0947 -91.5973 0
22.4794 -93.7663 0
21.8359 -93.0408 0
22.4794 -93.6973 0
20.9658 -92.8921 0
21.8359 -93.0408 0
21.0947 -91.5973 0
20.9658 -92.8921 0
19.6631 -91.2863 0
21.9744 -91.6097 0
21.5625 -89.9396 0
21.0947 -91.5973 0
20.2964 -89.8634 0
21.5625 -89.9396 0
20.9914 -87.9671 0
20.2964 -89.8634 0
19.4352 -87.8317 0
21.0947 -91.5973 0
20.2964 -89.8634 0
19.6631 -91.2863 0
18.4619 -89.5365 0
20.2964 -89.8634 0
19.4352 -87.8317 0
18.4619 -89.5365 0
17.3481 -87.5079 0
23.4532 -87.952 0
23.3624 -85.9899 0
22.3266 -88.0315 0
21.9044 -85.9572 0
23.3624 -85.9899 0
23.1762 -83.7047 0
21.9044 -85.9572 0
21.4912 -83.6435 0
22.3266 -88.0315 0
21.9044 -85.9572 0
20.9914 -87.9671 0
20.3938 -85.8489 0
21.9044 -85.9572 0
21.4912 -83.6435 0
20.3938 -85.8489 0
19.6974 -83.4491 0
23.1762 -83.7047 0
22.9972 -81.1916 0
21.4912 -83.6435 0
21.0469 -81.0741 0
22.9972 -81.1916 0
22.813 -78.354 0
21.0469 -81.0741 0
20.6667 -78.1857 0
21.4912 -83.6435 0
21.0469 -81.0741 0
19.6974 -83.4491 0
19.0272 -80.7326 0
21.0469 -81.0741 0
20.6667 -78.1857 0
19.0272 -80.7326 0
18.4341 -77.9361 0
20.9914 -87.9671 0
20.3938 -85.8489 0
19.4352 -87.8317 0
18.5731 -85.5796 0
20.3938 -85.8489 0
19.6974 -83.4491 0
18.5731 -85.5796 0
17.7152 -83.1321 0
19.4352 -87.8317 0
18.5731 -85.5796 0
17.3481 -87.5079 0
16.2733 -85.2604 0
18.5731 -85.5796 0
17.7152 -83.1321 0
16.2733 -85.2604 0
15.2321 -82.819 0
19.6974 -83.4491 0
19.0272 -80.7326 0
17.7152 -83.1321 0
16.8804 -80.4984 0
19.0272 -80.7326 0
18.4341 -77.9361 0
16.8804 -80.4984 0
16.0894 -77.6628 0
17.7152 -83.1321 0
16.8804 -80.4984 0
15.2321 -82.819 0
14.2088 -80.1945 0
16.8804 -80.4984 0
16.0894 -77.6628 0
14.2088 -80.1945 0
13.1879 -77.3597 0
12.739 -77.8224 0
13.8114 -80.6122 0
15.5687 -78.1165 0
16.3309 -80.9296 0
13.8114 -80.6122 0
14.9522 -83.0423 0
16.3309 -80.9296 0
17.086 -83.3593 0
15.5687 -78.1165 0
16.3309 -80.9296 0
17.9123 -78.3232 0
18.3559 -81.098 0
16.3309 -80.9296 0
17.086 -83.3593 0
18.3559 -81.098 0
18.7521 -83.5973 0
14.9522 -83.0423 0
16.1207 -85.114 0
17.086 -83.3593 0
17.9192 -85.4609 0
16.1207 -85.114 0
17.3682 -86.7771 0
17.9192 -85.4609 0
18.7296 -87.1302 0
17.086 -83.3593 0
17.9192 -85.4609 0
18.7521 -83.5973 0
19.2022 -85.6795 0
17.9192 -85.4609 0
18.7296 -87.1302 0
19.2022 -85.6795 0
19.6754 -87.4327 0
17.9123 -78.3232 0
18.3559 -81.098 0
20.041 -78.4032 0
20.1324 -81.1762 0
18.3559 -81.098 0
18.7521 -83.5973 0
20.1324 -81.1762 0
20.258 -83.7087 0
20.041 -78.4032 0
20.1324 -81.1762 0
22.1457 -78.354 0
21.9615 -81.1916 0
20.1324 -81.1762 0
20.258 -83.7087 0
21.9615 -81.1916 0
21.7826 -83.7047 0
18.7521 -83.5973 0
19.2022 -85.6795 0
20.258 -83.7087 0
20.349 -85.8671 0
19.2022 -85.6795 0
19.6754 -87.4327 0
20.349 -85.8671 0
20.4964 -87.7516 0
20.258 -83.7087 0
20.349 -85.8671 0
21.7826 -83.7047 0
21.5964 -85.9899 0
20.349 -85.8671 0
20.4964 -87.7516 0
21.5964 -85.9899 0
21.5056 -87.952 0
17.3682 -86.7771 0
18.6286 -88.0071 0
18.7296 -87.1302 0
19.617 -88.3742 0
18.6286 -88.0071 0
19.896 -88.8779 0
19.617 -88.3742 0
20.5653 -89.2525 0
18.7296 -87.1302 0
19.617 -88.3742 0
19.6754 -87.4327 0
20.1134 -88.7302 0
19.617 -88.3742 0
20.5653 -89.2525 0
20.1134 -88.7302 0
20.7859 -89.7311 0
19.896 -88.8779 0
21.1824 -89.4098 0
20.5653 -89.2525 0
21.5211 -89.7881 0
21.1824 -89.4098 0
22.4794 -89.5888 0
21.5211 -89.7881 0
22.4794 -89.9685 0
20.5653 -89.2525 0
21.5211 -89.7881 0
20.7859 -89.7311 0
21.594 -90.3845 0
21.5211 -89.7881 0
22.4794 -89.9685 0
21.594 -90.3845 0
22.4794 -90.6001 0
19.6754 -87.4327 0
20.1134 -88.7302 0
20.4964 -87.7516 0
20.7629 -89.1396 0
20.1134 -88.7302 0
20.7859 -89.7311 0
20.7629 -89.1396 0
21.2004 -90.3286 0
20.4964 -87.7516 0
20.7629 -89.1396 0
21.5056 -87.952 0
21.5198 -89.5468 0
20.7629 -89.1396 0
21.2004 -90.3286 0
21.5198 -89.5468 0
21.6849 -90.896 0
20.7859 -89.7311 0
21.594 -90.3845 0
21.2004 -90.3286 0
21.8028 -91.0157 0
21.594 -90.3845 0
22.4794 -90.6001 0
21.8028 -91.0157 0
22.4794 -91.2521 0
21.2004 -90.3286 0
21.8028 -91.0157 0
21.6849 -90.896 0
22.0363 -91.6351 0
21.8028 -91.0157 0
22.4794 -91.2521 0
22.0363 -91.6351 0
22.4794 -91.8842 0
22.1457 -78.354 0
21.9615 -81.1916 0
24.2921 -78.1857 0
23.9118 -81.0741 0
21.9615 -81.1916 0
21.7826 -83.7047 0
23.9118 -81.0741 0
23.4676 -83.6435 0
24.2921 -78.1857 0
23.9118 -81.0741 0
26.5247 -77.9361 0
25.9316 -80.7326 0
23.9118 -81.0741 0
23.4676 -83.6435 0
25.9316 -80.7326 0
25.2614 -83.4491 0
21.7826 -83.7047 0
21.5964 -85.9899 0
23.4676 -83.6435 0
23.0544 -85.9572 0
21.5964 -85.9899 0
21.5056 -87.952 0
23.0544 -85.9572 0
22.6322 -88.0315 0
23.4676 -83.6435 0
23.0544 -85.9572 0
25.2614 -83.4491 0
24.565 -85.8489 0
23.0544 -85.9572 0
22.6322 -88.0315 0
24.565 -85.8489 0
23.9673 -87.9671 0
26.5247 -77.9361 0
25.9316 -80.7326 0
28.8694 -77.6628 0
28.0784 -80.4984 0
25.9316 -80.7326 0
25.2614 -83.4491 0
28.0784 -80.4984 0
27.2436 -83.1321 0
28.8694 -77.6628 0
28.0784 -80.4984 0
31.7709 -77.3597 0
30.75 -80.1945 0
28.0784 -80.4984 0
27.2436 -83.1321 0
30.75 -80.1945 0
29.7267 -82.819 0
25.2614 -83.4491 0
24.565 -85.8489 0
27.2436 -83.1321 0
26.3856 -85.5796 0
24.565 -85.8489 0
23.9673 -87.9671 0
26.3856 -85.5796 0
25.5236 -87.8317 0
27.2436 -83.1321 0
26.3856 -85.5796 0
29.7267 -82.819 0
28.6855 -85.2604 0
26.3856 -85.5796 0
25.5236 -87.8317 0
28.6855 -85.2604 0
27.6107 -87.5079 0
21.5056 -87.952 0
21.5198 -89.5468 0
22.6322 -88.0315 0
22.3726 -89.8351 0
21.5198 -89.5468 0
21.6849 -90.896 0
22.3726 -89.8351 0
22.2048 -91.4122 0
22.6322 -88.0315 0
22.3726 -89.8351 0
23.9673 -87.9671 0
23.3963 -89.9396 0
22.3726 -89.8351 0
22.2048 -91.4122 0
23.3963 -89.9396 0
22.9843 -91.6097 0
21.6849 -90.896 0
22.0363 -91.6351 0
22.2048 -91.4122 0
22.2949 -92.2272 0
22.0363 -91.6351 0
22.4794 -91.8842 0
22.2949 -92.2272 0
22.4794 -92.5338 0
22.2048 -91.4122 0
22.2949 -92.2272 0
22.9843 -91.6097 0
22.7079 -92.8416 0
22.2949 -92.2272 0
22.4794 -92.5338 0
22.7079 -92.8416 0
22.4794 -93.1116 0
23.9673 -87.9671 0
23.3963 -89.9396 0
25.5236 -87.8317 0
24.6623 -89.8634 0
23.3963 -89.9396 0
22.9843 -91.6097 0
24.6623 -89.8634 0
23.864 -91.5973 0
25.5236 -87.8317 0
24.6623 -89.8634 0
27.6107 -87.5079 0
26.4969 -89.5365 0
24.6623 -89.8634 0
23.864 -91.5973 0
26.4969 -89.5365 0
25.2957 -91.2863 0
22.9843 -91.6097 0
22.7079 -92.8416 0
23.864 -91.5973 0
23.1228 -93.0408 0
22.7079 -92.8416 0
22.4794 -93.1116 0
23.1228 -93.0408 0
22.4794 -93.7663 0
23.864 -91.5973 0
23.1228 -93.0408 0
25.2957 -91.2863 0
23.993 -92.8921 0
23.1228 -93.0408 0
22.4794 -93.7663 0
23.993 -92.8921 0
22.4794 -93.6973 0
5.52444 -46.2124 0
6.32256 -50.9275 0
10.2574 -46.443 0
10.8347 -51.163 0
6.32256 -50.9275 0
7.14427 -55.4162 0
10.8347 -51.163 0
11.4452 -55.6535 0
10.2574 -46.443 0
10.8347 -51.163 0
14.3303 -46.6321 0
14.7637 -51.3124 0
10.8347 -51.163 0
11.4452 -55.6535 0
14.7637 -51.3124 0
15.1803 -55.8455 0
7.14427 -55.4162 0
7.95899 -59.7397 0
11.4452 -55.6535 0
12.1168 -59.9915 0
7.95899 -59.7397 0
8.83785 -63.8815 0
12.1168 -59.9915 0
12.7803 -64.1493 0
11.4452 -55.6535 0
12.1168 -59.9915 0
15.1803 -55.8455 0
15.6304 -60.2044 0
12.1168 -59.9915 0
12.7803 -64.1493 0
15.6304 -60.2044 0
16.0924 -64.2849 0
14.3303 -46.6321 0
14.7637 -51.3124 0
18.3312 -46.6758 0
18.5445 -51.4623 0
14.7637 -51.3124 0