# vtk DataFile Version 3.0
#This file was generated by the deal.II library on 2020/9/2 at 8:40:07
ASCII
DATASET UNSTRUCTURED_GRID

POINTS 1536 double
5 0 0
5.125 0 0
5 0.125 0
5.125 0.125 0
5.125 0 0
5.25 0 0
5.125 0.125 0
5.25 0.125 0
5 0.125 0
5.125 0.125 0
5 0.25 0
5.125 0.25 0
5.125 0.125 0
5.25 0.125 0
5.125 0.25 0
5.25 0.25 0
5.25 0 0
5.375 0 0
5.25 0.125 0
5.375 0.125 0
5.375 0 0
5.5 0 0
5.375 0.125 0
5.5 0.125 0
5.25 0.125 0
5.375 0.125 0
5.25 0.25 0
5.375 0.25 0
5.375 0.125 0
5.5 0.125 0
5.375 0.25 0
5.5 0.25 0
5 0.25 0
5.125 0.25 0
5 0.375 0
5.125 0.375 0
5.125 0.25 0
5.25 0.25 0
5.125 0.375 0
5.25 0.375 0
5 0.375 0
5.125 0.375 0
5 0.5 0
5.125 0.5 0
5.125 0.375 0
5.25 0.375 0
5.125 0.5 0
5.25 0.5 0
5.25 0.25 0
5.375 0.25 0
5.25 0.375 0
5.375 0.375 0
5.375 0.25 0
5.5 0.25 0
5.375 0.375 0
5.5 0.375 0
5.25 0.375 0
5.375 0.375 0
5.25 0.5 0
5.375 0.5 0
5.375 0.375 0
5.5 0.375 0
5.375 0.5 0
5.5 0.5 0
5.5 0 0
5.625 0 0
5.5 0.125 0
5.625 0.125 0
5.625 0 0
5.75 0 0
5.625 0.125 0
5.75 0.125 0
5.5 0.125 0
5.625 0.125 0
5.5 0.25 0
5.625 0.25 0
5.625 0.125 0
5.75 0.125 0
5.625 0.25 0
5.75 0.25 0
5.75 0 0
5.875 0 0
5.75 0.125 0
5.875 0.125 0
5.875 0 0
6 0 0
5.875 0.125 0
6 0.125 0
5.75 0.125 0
5.875 0.125 0
5.75 0.25 0
5.875 0.25 0
5.875 0.125 0
6 0.125 0
5.875 0.25 0
6 0.25 0
5.5 0.25 0
5.625 0.25 0
5.5 0.375 0
5.625 0.375 0
5.625 0.25 0
5.75 0.25 0
5.625 0.375 0
5.75 0.375 0
5.5 0.375 0
5.625 0.375 0
5.5 0.5 0
5.625 0.5 0
5.625 0.375 0
5.75 0.375 0
5.625 0.5 0
5.75 0.5 0
5.75 0.25 0
5.875 0.25 0
5.75 0.375 0
5.875 0.375 0
5.875 0.25 0
6 0.25 0
5.875 0.375 0
6 0.375 0
5.75 0.375 0
5.875 0.375 0
5.75 0.5 0
5.875 0.5 0
5.875 0.375 0
6 0.375 0
5.875 0.5 0
6 0.5 0
5 0.5 0
5.125 0.5 0
5 0.625 0
5.125 0.625 0
5.125 0.5 0
5.25 0.5 0
5.125 0.625 0
5.25 0.625 0
5 0.625 0
5.125 0.625 0
5 0.75 0
5.125 0.75 0
5.125 0.625 0
5.25 0.625 0
5.125 0.75 0
5.25 0.75 0
5.25 0.5 0
5.375 0.5 0
5.25 0.625 0
5.375 0.625 0
5.375 0.5 0
5.5 0.5 0
5.375 0.625 0
5.5 0.625 0
5.25 0.625 0
5.375 0.625 0
5.25 0.75 0
5.375 0.75 0
5.375 0.625 0
5.5 0.625 0
5.375 0.75 0
5.5 0.75 0
5 0.75 0
5.125 0.75 0
5 0.875 0
5.125 0.875 0
5.125 0.75 0
5.25 0.75 0
5.125 0.875 0
5.25 0.875 0
5 0.875 0
5.125 0.875 0
5 1 0
5.125 1 0
5.125 0.875 0
5.25 0.875 0
5.125 1 0
5.25 1 0
5.25 0.75 0
5.375 0.75 0
5.25 0.875 0
5.375 0.875 0
5.375 0.75 0
5.5 0.75 0
5.375 0.875 0
5.5 0.875 0
5.25 0.875 0
5.375 0.875 0
5.25 1 0
5.375 1 0
5.375 0.875 0
5.5 0.875 0
5.375 1 0
5.5 1 0
5.5 0.5 0
5.625 0.5 0
5.5 0.625 0
5.625 0.625 0
5.625 0.5 0
5.75 0.5 0
5.625 0.625 0
5.75 0.625 0
5.5 0.625 0
5.625 0.625 0
5.5 0.75 0
5.625 0.75 0
5.625 0.625 0
5.75 0.625 0
5.625 0.75 0
5.75 0.75 0
5.75 0.5 0
5.875 0.5 0
5.75 0.625 0
5.875 0.625 0
5.875 0.5 0
6 0.5 0
5.875 0.625 0
6 0.625 0
5.75 0.625 0
5.875 0.625 0
5.75 0.75 0
5.875 0.75 0
5.875 0.625 0
6 0.625 0
5.875 0.75 0
6 0.75 0
5.5 0.75 0
5.625 0.75 0
5.5 0.875 0
5.625 0.875 0
5.625 0.75 0
5.75 0.75 0
5.625 0.875 0
5.75 0.875 0
5.5 0.875 0
5.625 0.875 0
5.5 1 0
5.625 1 0
5.625 0.875 0
5.75 0.875 0
5.625 1 0
5.75 1 0
5.75 0.75 0
5.875 0.75 0
5.75 0.875 0
5.875 0.875 0
5.875 0.75 0
6 0.75 0
5.875 0.875 0
6 0.875 0
5.75 0.875 0
5.875 0.875 0
5.75 1 0
5.875 1 0
5.875 0.875 0
6 0.875 0
5.875 1 0
6 1 0
4 0 0
4.125 0 0
4 0.125 0
4.125 0.125 0
4.125 0 0
4.25 0 0
4.125 0.125 0
4.25 0.125 0
4 0.125 0
4.125 0.125 0
4 0.25 0
4.125 0.25 0
4.125 0.125 0
4.25 0.125 0
4.125 0.25 0
4.25 0.25 0
4.25 0 0
4.375 0 0
4.25 0.125 0
4.375 0.125 0
4.375 0 0
4.5 0 0
4.375 0.125 0
4.5 0.125 0
4.25 0.125 0
4.375 0.125 0
4.25 0.25 0
4.375 0.25 0
4.375 0.125 0
4.5 0.125 0
4.375 0.25 0
4.5 0.25 0
4 0.25 0
4.125 0.25 0
4 0.375 0
4.125 0.375 0
4.125 0.25 0
4.25 0.25 0
4.125 0.375 0
4.25 0.375 0
4 0.375 0
4.125 0.375 0
4 0.5 0
4.125 0.5 0
4.125 0.375 0
4.25 0.375 0
4.125 0.5 0
4.25 0.5 0
4.25 0.25 0
4.375 0.25 0
4.25 0.375 0
4.375 0.375 0
4.375 0.25 0
4.5 0.25 0
4.375 0.375 0
4.5 0.375 0
4.25 0.375 0
4.375 0.375 0
4.25 0.5 0
4.375 0.5 0
4.375 0.375 0
4.5 0.375 0
4.375 0.5 0
4.5 0.5 0
4.5 0 0
4.625 0 0
4.5 0.125 0
4.625 0.125 0
4.625 0 0
4.75 0 0
4.625 0.125 0
4.75 0.125 0
4.5 0.125 0
4.625 0.125 0
4.5 0.25 0
4.625 0.25 0
4.625 0.125 0
4.75 0.125 0
4.625 0.25 0
4.75 0.25 0
4.75 0 0
4.875 0 0
4.75 0.125 0
4.875 0.125 0
4.875 0 0
5 0 0
4.875 0.125 0
5 0.125 0
4.75 0.125 0
4.875 0.125 0
4.75 0.25 0
4.875 0.25 0
4.875 0.125 0
5 0.125 0
4.875 0.25 0
5 0.25 0
4.5 0.25 0
4.625 0.25 0
4.5 0.375 0
4.625 0.375 0
4.625 0.25 0
4.75 0.25 0
4.625 0.375 0
4.75 0.375 0
4.5 0.375 0
4.625 0.375 0
4.5 0.5 0
4.625 0.5 0
4.625 0.375 0
4.75 0.375 0
4.625 0.5 0
4.75 0.5 0
4.75 0.25 0
4.875 0.25 0
4.75 0.375 0
4.875 0.375 0
4.875 0.25 0
5 0.25 0
4.875 0.375 0
5 0.375 0
4.75 0.375 0
4.875 0.375 0
4.75 0.5 0
4.875 0.5 0
4.875 0.375 0
5 0.375 0
4.875 0.5 0
5 0.5 0
4 0.5 0
4.125 0.5 0
4 0.625 0
4.125 0.625 0
4.125 0.5 0
4.25 0.5 0
4.125 0.625 0
4.25 0.625 0
4 0.625 0
4.125 0.625 0
4 0.75 0
4.125 0.75 0
4.125 0.625 0
4.25 0.625 0
4.125 0.75 0
4.25 0.75 0
4.25 0.5 0
4.375 0.5 0
4.25 0.625 0
4.375 0.625 0
4.375 0.5 0
4.5 0.5 0
4.375 0.625 0
4.5 0.625 0
4.25 0.625 0
4.375 0.625 0
4.25 0.75 0
4.375 0.75 0
4.375 0.625 0
4.5 0.625 0
4.375 0.75 0
4.5 0.75 0
4 0.75 0
4.125 0.75 0
4 0.875 0
4.125 0.875 0
4.125 0.75 0
4.25 0.75 0
4.125 0.875 0
4.25 0.875 0
4 0.875 0
4.125 0.875 0
4 1 0
4.125 1 0
4.125 0.875 0
4.25 0.875 0
4.125 1 0
4.25 1 0
4.25 0.75 0
4.375 0.75 0
4.25 0.875 0
4.375 0.875 0
4.375 0.75 0
4.5 0.75 0
4.375 0.875 0
4.5 0.875 0
4.25 0.875 0
4.375 0.875 0
4.25 1 0
4.375 1 0
4.375 0.875 0
4.5 0.875 0
4.375 1 0
4.5 1 0
4.5 0.5 0
4.625 0.5 0
4.5 0.625 0
4.625 0.625 0
4.625 0.5 0
4.75 0.5 0
4.625 0.625 0
4.75 0.625 0
4.5 0.625 0
4.625 0.625 0
4.5 0.75 0
4.625 0.75 0
4.625 0.625 0
4.75 0.625 0
4.625 0.75 0
4.75 0.75 0
4.75 0.5 0
4.875 0.5 0
4.75 0.625 0
4.875 0.625 0
4.875 0.5 0
5 0.5 0
4.875 0.625 0
5 0.625 0
4.75 0.625 0
4.875 0.625 0
4.75 0.75 0
4.875 0.75 0
4.875 0.625 0
5 0.625 0
4.875 0.75 0
5 0.75 0
4.5 0.75 0
4.625 0.75 0
4.5 0.875 0
4.625 0.875 0
4.625 0.75 0
4.75 0.75 0
4.625 0.875 0
4.75 0.875 0
4.5 0.875 0
4.625 0.875 0
4.5 1 0
4.625 1 0
4.625 0.875 0
4.75 0.875 0
4.625 1 0
4.75 1 0
4.75 0.75 0
4.875 0.75 0
4.75 0.875 0
4.875 0.875 0
4.875 0.75 0
5 0.75 0
4.875 0.875 0
5 0.875 0
4.75 0.875 0
4.875 0.875 0
4.75 1 0
4.875 1 0
4.875 0.875 0
5 0.875 0
4.875 1 0
5 1 0
3 0 0
3.125 0 0
3 0.125 0
3.125 0.125 0
3.125 0 0
3.25 0 0
3.125 0.125 0
3.25 0.125 0
3 0.125 0
3.125 0.125 0
3 0.25 0
3.125 0.25 0
3.125 0.125 0
3.25 0.125 0
3.125 0.25 0
3.25 0.25 0
3.25 0 0
3.375 0 0
3.25 0.125 0
3.375 0.125 0
3.375 0 0
3.5 0 0
3.375 0.125 0
3.5 0.125 0
3.25 0.125 0
3.375 0.125 0
3.25 0.25 0
3.375 0.25 0
3.375 0.125 0
3.5 0.125 0
3.375 0.25 0
3.5 0.25 0
3 0.25 0
3.125 0.25 0
3 0.375 0
3.125 0.375 0
3.125 0.25 0
3.25 0.25 0
3.125 0.375 0
3.25 0.375 0
3 0.375 0
3.125 0.375 0
3 0.5 0
3.125 0.5 0
3.125 0.375 0
3.25 0.375 0
3.125 0.5 0
3.25 0.5 0
3.25 0.25 0
3.375 0.25 0
3.25 0.375 0
3.375 0.375 0
3.375 0.25 0
3.5 0.25 0
3.375 0.375 0
3.5 0.375 0
3.25 0.375 0
3.375 0.375 0
3.25 0.5 0
3.375 0.5 0
3.375 0.375 0
3.5 0.375 0
3.375 0.5 0
3.5 0.5 0
3.5 0 0
3.625 0 0
3.5 0.125 0
3.625 0.125 0
3.625 0 0
3.75 0 0
3.625 0.125 0
3.75 0.125 0
3.5 0.125 0
3.625 0.125 0
3.5 0.25 0
3.625 0.25 0
3.625 0.125 0
3.75 0.125 0
3.625 0.25 0
3.75 0.25 0
3.75 0 0
3.875 0 0
3.75 0.125 0
3.875 0.125 0
3.875 0 0
4 0 0
3.875 0.125 0
4 0.125 0
3.75 0.125 0
3.875 0.125 0
3.75 0.25 0
3.875 0.25 0
3.875 0.125 0
4 0.125 0
3.875 0.25 0
4 0.25 0
3.5 0.25 0
3.625 0.25 0
3.5 0.375 0
3.625 0.375 0
3.625 0.25 0
3.75 0.25 0
3.625 0.375 0
3.75 0.375 0
3.5 0.375 0
3.625 0.375 0
3.5 0.5 0
3.625 0.5 0
3.625 0.375 0
3.75 0.375 0
3.625 0.5 0
3.75 0.5 0
3.75 0.25 0
3.875 0.25 0
3.75 0.375 0
3.875 0.375 0
3.875 0.25 0
4 0.25 0
3.875 0.375 0
4 0.375 0
3.75 0.375 0
3.875 0.375 0
3.75 0.5 0
3.875 0.5 0
3.875 0.375 0
4 0.375 0
3.875 0.5 0
4 0.5 0
3 0.5 0
3.125 0.5 0
3 0.625 0
3.125 0.625 0
3.125 0.5 0
3.25 0.5 0
3.125 0.625 0
3.25 0.625 0
3 0.625 0
3.125 0.625 0
3 0.75 0
3.125 0.75 0
3.125 0.625 0
3.25 0.625 0
3.125 0.75 0
3.25 0.75 0
3.25 0.5 0
3.375 0.5 0
3.25 0.625 0
3.375 0.625 0
3.375 0.5 0
3.5 0.5 0
3.375 0.625 0
3.5 0.625 0
3.25 0.625 0
3.375 0.625 0
3.25 0.75 0
3.375 0.75 0
3.375 0.625 0
3.5 0.625 0
3.375 0.75 0
3.5 0.75 0
3 0.75 0
3.125 0.75 0
3 0.875 0
3.125 0.875 0
3.125 0.75 0
3.25 0.75 0
3.125 0.875 0
3.25 0.875 0
3 0.875 0
3.125 0.875 0
3 1 0
3.125 1 0
3.125 0.875 0
3.25 0.875 0
3.125 1 0
3.25 1 0
3.25 0.75 0
3.375 0.75 0
3.25 0.875 0
3.375 0.875 0
3.375 0.75 0
3.5 0.75 0
3.375 0.875 0
3.5 0.875 0
3.25 0.875 0
3.375 0.875 0
3.25 1 0
3.375 1 0
3.375 0.875 0
3.5 0.875 0
3.375 1 0
3.5 1 0
3.5 0.5 0
3.625 0.5 0
3.5 0.625 0
3.625 0.625 0
3.625 0.5 0
3.75 0.5 0
3.625 0.625 0
3.75 0.625 0
3.5 0.625 0
3.625 0.625 0
3.5 0.75 0
3.625 0.75 0
3.625 0.625 0
3.75 0.625 0
3.625 0.75 0
3.75 0.75 0
3.75 0.5 0
3.875 0.5 0
3.75 0.625 0
3.875 0.625 0
3.875 0.5 0
4 0.5 0
3.875 0.625 0
4 0.625 0
3.75 0.625 0
3.875 0.625 0
3.75 0.75 0
3.875 0.75 0
3.875 0.625 0
4 0.625 0
3.875 0.75 0
4 0.75 0
3.5 0.75 0
3.625 0.75 0
3.5 0.875 0
3.625 0.875 0
3.625 0.75 0
3.75 0.75 0
3.625 0.875 0
3.75 0.875 0
3.5 0.875 0
3.625 0.875 0
3.5 1 0
3.625 1 0
3.625 0.875 0
3.75 0.875 0
3.625 1 0
3.75 1 0
3.75 0.75 0
3.875 0.75 0
3.75 0.875 0
3.875 0.875 0
3.875 0.75 0
4 0.75 0
3.875 0.875 0
4 0.875 0
3.75 0.875 0
3.875 0.875 0
3.75 1 0
3.875 1 0
3.875 0.875 0
4 0.875 0
3.875 1 0
4 1 0
2 0 0
2.125 0 0
2 0.125 0
2.125 0.125 0
2.125 0 0
2.25 0 0
2.125 0.125 0
2.25 0.125 0
2 0.125 0
2.125 0.125 0
2 0.25 0
2.125 0.25 0
2.125 0.125 0
2.25 0.125 0
2.125 0.25 0
2.25 0.25 0
2.25 0 0
2.375 0 0
2.25 0.125 0
2.375 0.125 0
2.375 0 0
2.5 0 0
2.375 0.125 0
2.5 0.125 0
2.25 0.125 0
2.375 0.125 0
2.25 0.25 0
2.375 0.25 0
2.375 0.125 0
2.5 0.125 0
2.375 0.25 0
2.5 0.25 0
2 0.25 0
2.125 0.25 0
2 0.375 0
2.125 0.375 0
2.125 0.25 0
2.25 0.25 0
2.125 0.375 0
2.25 0.375 0
2 0.375 0
2.125 0.375 0
2 0.5 0
2.125 0.5 0
2.125 0.375 0
2.25 0.375 0
2.125 0.5 0
2.25 0.5 0
2.25 0.25 0
2.375 0.25 0
2.25 0.375 0
2.375 0.375 0
2.375 0.25 0
[...]
POINT_DATA 1536
VECTORS displacements double
36.8088 -42.6675 0
37.5007 -38.1971 0
32.5276 -42.873 0
33.0449 -38.3918 0
37.5007 -38.1971 0
38.161 -33.5562 0
33.0449 -38.3918 0
33.5338 -33.7404 0
32.5276 -42.873 0
33.0449 -38.3918 0
28.5686 -43.0125 0
28.9124 -38.5203 0
33.0449 -38.3918 0
33.5338 -33.7404 0
28.9124 -38.5203 0
29.231 -33.856 0
38.161 -33.5562 0
38.7946 -28.7497 0
33.5338 -33.7404 0
33.9934 -28.9237 0
38.7946 -28.7497 0
39.4114 -23.7757 0
33.9934 -28.9237 0
34.4217 -23.9418 0
33.5338 -33.7404 0
33.9934 -28.9237 0
29.231 -33.856 0
29.519 -29.0245 0
33.9934 -28.9237 0
34.4217 -23.9418 0
29.519 -29.0245 0
29.7675 -24.0223 0
28.5686 -43.0125 0
28.9124 -38.5203 0
24.7835 -43.0827 0
24.949 -38.5795 0
28.9124 -38.5203 0
29.231 -33.856 0
24.949 -38.5795 0
25.0947 -33.9014 0
24.7835 -43.0827 0
24.949 -38.5795 0
21.0756 -43.0846 0
21.0619 -38.5723 0
24.949 -38.5795 0
25.0947 -33.9014 0
21.0619 -38.5723 0
21.0356 -33.8835 0
29.231 -33.856 0
29.519 -29.0245 0
25.0947 -33.9014 0
25.2135 -29.053 0
29.519 -29.0245 0
29.7675 -24.0223 0
25.2135 -29.053 0
25.2941 -24.0347 0
25.0947 -33.9014 0
25.2135 -29.053 0
21.0356 -33.8835 0
20.9907 -29.0246 0
25.2135 -29.053 0
25.2941 -24.0347 0
20.9907 -29.0246 0
20.9182 -24.0006 0
39.4114 -23.7757 0
40.0305 -18.6232 0
34.4217 -23.9418 0
34.8109 -18.775 0
40.0305 -18.6232 0
40.6958 -13.2134 0
34.8109 -18.775 0
35.1305 -13.3885 0
34.4217 -23.9418 0
34.8109 -18.775 0
29.7675 -24.0223 0
29.9578 -18.8356 0
34.8109 -18.775 0
35.1305 -13.3885 0
29.9578 -18.8356 0
30.0609 -13.3841 0
40.6958 -13.2134 0
41.4715 -7.52154 0
35.1305 -13.3885 0
35.2343 -7.45355 0
41.4715 -7.52154 0
41.9065 0 0
35.2343 -7.45355 0
35.4041 -1.36342 0
35.1305 -13.3885 0
35.2343 -7.45355 0
30.0609 -13.3841 0
30.0475 -7.68663 0
35.2343 -7.45355 0
35.4041 -1.36342 0
30.0475 -7.68663 0
30.1963 -2.32596 0
29.7675 -24.0223 0
29.9578 -18.8356 0
25.2941 -24.0347 0
25.3228 -18.8294 0
29.9578 -18.8356 0
30.0609 -13.3841 0
25.3228 -18.8294 0
25.2709 -13.4525 0
25.2941 -24.0347 0
25.3228 -18.8294 0
20.9182 -24.0006 0
20.8081 -18.836 0
25.3228 -18.8294 0
25.2709 -13.4525 0
20.8081 -18.836 0
20.7162 -13.5976 0
30.0609 -13.3841 0
30.0475 -7.68663 0
25.2709 -13.4525 0
25.2779 -8.07059 0
30.0475 -7.68663 0
30.1963 -2.32596 0
25.2779 -8.07059 0
25.4035 -2.99778 0
25.2709 -13.4525 0
25.2779 -8.07059 0
20.7162 -13.5976 0
20.7058 -8.41499 0
25.2779 -8.07059 0
25.4035 -2.99778 0
20.7058 -8.41499 0
20.7971 -3.51897 0
21.0756 -43.0846 0
21.0619 -38.5723 0
17.3654 -43.0228 0
17.1739 -38.5058 0
21.0619 -38.5723 0
21.0356 -33.8835 0
17.1739 -38.5058 0
16.9793 -33.8138 0
17.3654 -43.0228 0
17.1739 -38.5058 0
13.5734 -42.9052 0
13.2089 -38.3917 0
17.1739 -38.5058 0
16.9793 -33.8138 0
13.2089 -38.3917 0
12.8566 -33.7113 0
21.0356 -33.8835 0
20.9907 -29.0246 0
16.9793 -33.8138 0
16.7782 -28.9592 0
20.9907 -29.0246 0
20.9182 -24.0006 0
16.7782 -28.9592 0
16.5728 -23.9631 0
16.9793 -33.8138 0
16.7782 -28.9592 0
12.8566 -33.7113 0
12.5218 -28.8782 0
16.7782 -28.9592 0
16.5728 -23.9631 0
12.5218 -28.8782 0
12.2234 -23.9196 0
13.5734 -42.9052 0
13.2089 -38.3917 0
9.61499 -42.7442 0
9.09353 -38.2407 0
13.2089 -38.3917 0
12.8566 -33.7113 0
9.09353 -38.2407 0
8.60554 -33.5782 0
9.61499 -42.7442 0
9.09353 -38.2407 0
5.35448 -42.5397 0
4.70072 -38.0513 0
9.09353 -38.2407 0
8.60554 -33.5782 0
4.70072 -38.0513 0
4.11167 -33.4117 0
12.8566 -33.7113 0
12.5218 -28.8782 0
8.60554 -33.5782 0
8.16987 -28.7734 0
12.5218 -28.8782 0
12.2234 -23.9196 0
8.16987 -28.7734 0
7.80849 -23.8583 0
8.60554 -33.5782 0
8.16987 -28.7734 0
4.11167 -33.4117 0
3.59056 -28.6398 0
8.16987 -28.7734 0
7.80849 -23.8583 0
3.59056 -28.6398 0
3.13976 -23.7534 0
20.9182 -24.0006 0
20.8081 -18.836 0
16.5728 -23.9631 0
16.3885 -18.8646 0
20.8081 -18.836 0
20.7162 -13.5976 0
16.3885 -18.8646 0
16.2692 -13.7379 0
16.5728 -23.9631 0
16.3885 -18.8646 0
12.2234 -23.9196 0
11.9932 -18.8845 0
16.3885 -18.8646 0
16.2692 -13.7379 0
11.9932 -18.8845 0
11.8427 -13.8349 0
20.7162 -13.5976 0
20.7058 -8.41499 0
16.2692 -13.7379 0
16.2375 -8.68369 0
20.7058 -8.41499 0
20.7971 -3.51897 0
16.2375 -8.68369 0
16.2995 -3.90969 0
16.2692 -13.7379 0
16.2375 -8.68369 0
11.8427 -13.8349 0
11.7866 -8.86654 0
16.2375 -8.68369 0
16.2995 -3.90969 0
11.7866 -8.86654 0
11.8092 -4.1387 0
12.2234 -23.9196 0
11.9932 -18.8845 0
7.80849 -23.8583 0
7.52326 -18.8669 0
11.9932 -18.8845 0
11.8427 -13.8349 0
7.52326 -18.8669 0
7.3289 -13.8634 0
7.80849 -23.8583 0
7.52326 -18.8669 0
3.13976 -23.7534 0
2.79104 -18.7947 0
7.52326 -18.8669 0
7.3289 -13.8634 0
2.79104 -18.7947 0
2.58291 -13.8354 0
11.8427 -13.8349 0
11.7866 -8.86654 0
7.3289 -13.8634 0
7.23746 -8.95171 0
11.7866 -8.86654 0
11.8092 -4.1387 0
7.23746 -8.95171 0
7.22187 -4.21072 0
7.3289 -13.8634 0
7.23746 -8.95171 0
2.58291 -13.8354 0
2.51589 -8.96575 0
7.23746 -8.95171 0
7.22187 -4.21072 0
2.51589 -8.96575 0
2.5121 -4.21482 0
30.012 -71.2561 0
30.9871 -68.4736 0
27.4454 -71.5433 0
28.1662 -68.7507 0
30.9871 -68.4736 0
31.9256 -65.4424 0
28.1662 -68.7507 0
28.8638 -65.7096 0
27.4454 -71.5433 0
28.1662 -68.7507 0
25.1814 -71.741 0
25.6507 -68.9422 0
28.1662 -68.7507 0
28.8638 -65.7096 0
25.6507 -68.9422 0
26.1098 -65.895 0
31.9256 -65.4424 0
32.8281 -62.1751 0
28.8638 -65.7096 0
29.5376 -62.4324 0
32.8281 -62.1751 0
33.6949 -58.6832 0
29.5376 -62.4324 0
30.1871 -58.9304 0
28.8638 -65.7096 0
29.5376 -62.4324 0
26.1098 -65.895 0
26.5577 -62.6116 0
29.5376 -62.4324 0
30.1871 -58.9304 0
26.5577 -62.6116 0
26.9928 -59.103 0
25.1814 -71.741 0
25.6507 -68.9422 0
23.1367 -71.8477 0
23.3501 -69.0455 0
25.6507 -68.9422 0
26.1098 -65.895 0
23.3501 -69.0455 0
23.5653 -65.9961 0
23.1367 -71.8477 0
23.3501 -69.0455 0
21.1697 -71.8653 0
21.1319 -69.062 0
23.3501 -69.0455 0
23.5653 -65.9961 0
21.1319 -69.062 0
21.1056 -66.0137 0
26.1098 -65.895 0
26.5577 -62.6116 0
23.5653 -65.9961 0
23.7812 -62.7103 0
26.5577 -62.6116 0
26.9928 -59.103 0
23.7812 -62.7103 0
23.9956 -59.1986 0
23.5653 -65.9961 0
23.7812 -62.7103 0
21.1056 -66.0137 0
21.0899 -62.7294 0
23.7812 -62.7103 0
23.9956 -59.1986 0
21.0899 -62.7294 0
21.0827 -59.218 0
33.6949 -58.6832 0
34.5262 -54.9769 0
30.1871 -58.9304 0
30.8115 -55.2139 0
34.5262 -54.9769 0
35.3222 -51.0661 0
30.8115 -55.2139 0
31.4102 -51.2928 0
30.1871 -58.9304 0
30.8115 -55.2139 0
26.9928 -59.103 0
27.4131 -55.3794 0
30.8115 -55.2139 0
31.4102 -51.2928 0
27.4131 -55.3794 0
27.817 -51.4505 0
35.3222 -51.0661 0
36.083 -46.96 0
31.4102 -51.2928 0
31.9824 -47.1761 0
36.083 -46.96 0
36.8088 -42.6675 0
31.9824 -47.1761 0
32.5276 -42.873 0
31.4102 -51.2928 0
31.9824 -47.1761 0
27.817 -51.4505 0
28.2027 -47.3254 0
31.9824 -47.1761 0
32.5276 -42.873 0
28.2027 -47.3254 0
28.5686 -43.0125 0
26.9928 -59.103 0
27.4131 -55.3794 0
23.9956 -59.1986 0
24.2058 -55.4708 0
27.4131 -55.3794 0
27.817 -51.4505 0
24.2058 -55.4708 0
24.409 -51.5364 0
23.9956 -59.1986 0
24.2058 -55.4708 0
21.0827 -59.218 0
21.081 -55.4887 0
24.2058 -55.4708 0
24.409 -51.5364 0
21.081 -55.4887 0
21.0816 -51.5508 0
27.817 -51.4505 0
28.2027 -47.3254 0
24.409 -51.5364 0
24.6025 -47.4043 0
28.2027 -47.3254 0
28.5686 -43.0125 0
24.6025 -47.4043 0
24.7835 -43.0827 0
24.409 -51.5364 0
24.6025 -47.4043 0
21.0816 -51.5508 0
21.081 -47.4133 0
24.6025 -47.4043 0
24.7835 -43.0827 0
21.081 -47.4133 0
21.0756 -43.0846 0
21.1697 -71.8653 0
21.1319 -69.062 0
19.1775 -71.7985 0
18.8981 -68.9963 0
21.1319 -69.062 0
21.1056 -66.0137 0
18.8981 -68.9963 0
18.637 -65.9522 0
19.1775 -71.7985 0
18.8981 -68.9963 0
17.0654 -71.6533 0
16.5561 -68.855 0
18.8981 -68.9963 0
18.637 -65.9522 0
16.5561 -68.855 0
16.0695 -65.8175 0
21.1056 -66.0137 0
21.0899 -62.7294 0
18.637 -65.9522 0
18.394 -62.6725 0
21.0899 -62.7294 0
21.0827 -59.218 0
18.394 -62.6725 0
18.1671 -59.1646 0
18.637 -65.9522 0
18.394 -62.6725 0
16.0695 -65.8175 0
15.6055 -62.5449 0
18.394 -62.6725 0
18.1671 -59.1646 0
15.6055 -62.5449 0
15.1631 -59.043 0
17.0654 -71.6533 0
16.5561 -68.855 0
14.7121 -71.4385 0
13.9876 -68.6469 0
16.5561 -68.855 0
16.0695 -65.8175 0
13.9876 -68.6469 0
13.2874 -65.6173 0
14.7121 -71.4385 0
13.9876 -68.6469 0
12.1132 -71.1535 0
11.1562 -68.3701 0
13.9876 -68.6469 0
13.2874 -65.6173 0
11.1562 -68.3701 0
10.2257 -65.3494 0
16.0695 -65.8175 0
15.6055 -62.5449 0
13.2874 -65.6173 0
12.612 -62.3529 0
15.6055 -62.5449 0
15.1631 -59.043 0
12.612 -62.3529 0
11.9617 -58.8587 0
13.2874 -65.6173 0
12.612 -62.3529 0
10.2257 -65.3494 0
9.32433 -62.0943 0
12.612 -62.3529 0
11.9617 -58.8587 0
9.32433 -62.0943 0
8.4545 -58.6097 0
21.0827 -59.218 0
21.081 -55.4887 0
18.1671 -59.1646 0
17.9541 -55.4366 0
21.081 -55.4887 0
21.0816 -51.5508 0
17.9541 -55.4366 0
17.7518 -51.4974 0
18.1671 -59.1646 0
17.9541 -55.4366 0
15.1631 -59.043 0
14.7408 -55.3189 0
17.9541 -55.4366 0
17.7518 -51.4974 0
14.7408 -55.3189 0
14.3368 -51.3812 0
21.0816 -51.5508 0
21.081 -47.4133 0
17.7518 -51.4974 0
17.5568 -47.3562 0
21.081 -47.4133 0
21.0756 -43.0846 0
17.5568 -47.3562 0
17.3654 -43.0228 0
17.7518 -51.4974 0
17.5568 -47.3562 0
14.3368 -51.3812 0
13.9486 -47.2394 0
17.5568 -47.3562 0
17.3654 -43.0228 0
13.9486 -47.2394 0
13.5734 -42.9052 0
15.1631 -59.043 0
14.7408 -55.3189 0
11.9617 -58.8587 0
11.3368 -55.1413 0
14.7408 -55.3189 0
14.3368 -51.3812 0
11.3368 -55.1413 0
10.7374 -51.2091 0
11.9617 -58.8587 0
11.3368 -55.1413 0
8.4545 -58.6097 0
7.61885 -54.9025 0
11.3368 -55.1413 0
10.7374 -51.2091 0
7.61885 -54.9025 0
6.82054 -50.9808 0
14.3368 -51.3812 0
13.9486 -47.2394 0
10.7374 -51.2091 0
10.1634 -47.0724 0
13.9486 -47.2394 0
13.5734 -42.9052 0
10.1634 -47.0724 0
9.61499 -42.7442 0
10.7374 -51.2091 0
10.1634 -47.0724 0
6.82054 -50.9808 0
6.06377 -46.8553 0
10.1634 -47.0724 0
9.61499 -42.7442 0
6.06377 -46.8553 0
5.35448 -42.5397 0
20.9532 -82.6416 0
22.1784 -82.4457 0
20.9532 -82.9942 0
21.8125 -82.7964 0
22.1784 -82.4457 0
23.3908 -81.8635 0
21.8125 -82.7964 0
22.6666 -82.2088 0
20.9532 -82.9942 0
21.8125 -82.7964 0
20.9532 -83.2854 0
21.5358 -83.0818 0
21.8125 -82.7964 0
22.6666 -82.2088 0
21.5358 -83.0818 0
22.1069 -82.4796 0
23.3908 -81.8635 0
24.5799 -80.9099 0
22.6666 -82.2088 0
23.5101 -81.2472 0
24.5799 -80.9099 0
25.7386 -79.6043 0
23.5101 -81.2472 0
24.3382 -79.9322 0
22.6666 -82.2088 0
23.5101 -81.2472 0
22.1069 -82.4796 0
22.66 -81.5005 0
23.5101 -81.2472 0
24.3382 -79.9322 0
22.66 -81.5005 0
23.1941 -80.1695 0
20.9532 -83.2854 0
21.5358 -83.0818 0
20.9532 -83.6381 0
21.3378 -83.4155 0
21.5358 -83.0818 0
22.1069 -82.4796 0
21.3378 -83.4155 0
21.6903 -82.7659 0
20.9532 -83.6381 0
21.3378 -83.4155 0
20.9532 -84.0194 0
21.1427 -83.7688 0
21.3378 -83.4155 0
21.6903 -82.7659 0
21.1427 -83.7688 0
21.2828 -83.0505 0
22.1069 -82.4796 0
22.66 -81.5005 0
21.6903 -82.7659 0
21.9964 -81.731 0
22.66 -81.5005 0
23.1941 -80.1695 0
21.9964 -81.731 0
22.2607 -80.3518 0
21.6903 -82.7659 0
21.9964 -81.731 0
21.2828 -83.0505 0
21.3539 -81.9341 0
21.9964 -81.731 0
22.2607 -80.3518 0
21.3539 -81.9341 0
21.3631 -80.4825 0
25.7386 -79.6043 0
26.8626 -77.9675 0
24.3382 -79.9322 0
25.1474 -78.2853 0
26.8626 -77.9675 0
27.9499 -76.0189 0
25.1474 -78.2853 0
25.9356 -76.3264 0
24.3382 -79.9322 0
25.1474 -78.2853 0
23.1941 -80.1695 0
23.711 -78.5094 0
25.1474 -78.2853 0
25.9356 -76.3264 0
23.711 -78.5094 0
24.2129 -76.5399 0
27.9499 -76.0189 0
28.9997 -73.7763 0
25.9356 -76.3264 0
26.7018 -74.0736 0
28.9997 -73.7763 0
30.012 -71.2561 0
26.7018 -74.0736 0
27.4454 -71.5433 0
25.9356 -76.3264 0
26.7018 -74.0736 0
24.2129 -76.5399 0
24.7024 -74.2785 0
26.7018 -74.0736 0
27.4454 -71.5433 0
24.7024 -74.2785 0
25.1814 -71.741 0
23.1941 -80.1695 0
23.711 -78.5094 0
22.2607 -80.3518 0
22.4955 -78.6575 0
23.711 -78.5094 0
24.2129 -76.5399 0
22.4955 -78.6575 0
22.7134 -76.6659 0
22.2607 -80.3518 0
22.4955 -78.6575 0
21.3631 -80.4825 0
21.3285 -78.7325 0
22.4955 -78.6575 0
22.7134 -76.6659 0
21.3285 -78.7325 0
21.2744 -76.7071 0
24.2129 -76.5399 0
24.7024 -74.2785 0
22.7134 -76.6659 0
22.9252 -74.3918 0
24.7024 -74.2785 0
25.1814 -71.741 0
22.9252 -74.3918 0
23.1367 -71.8477 0
22.7134 -76.6659 0
22.9252 -74.3918 0
21.2744 -76.7071 0
21.2185 -74.416 0
22.9252 -74.3918 0
23.1367 -71.8477 0
21.2185 -74.416 0
21.1697 -71.8653 0
20.9532 -84.0194 0
21.1427 -83.7688 0
20.9532 -84.4059 0
20.9307 -84.1098 0
21.1427 -83.7688 0
21.2828 -83.0505 0
20.9307 -84.1098 0
20.8379 -83.2914 0
20.9532 -84.4059 0
20.9307 -84.1098 0
20.9532 -84.7749 0
20.6672 -84.403 0
20.9307 -84.1098 0
20.8379 -83.2914 0
20.6672 -84.403 0
20.3035 -83.4362 0
21.2828 -83.0505 0
21.3539 -81.9341 0
20.8379 -83.2914 0
20.6565 -82.0708 0
21.3539 -81.9341 0
21.3631 -80.4825 0
20.6565 -82.0708 0
20.3981 -80.5298 0
20.8379 -83.2914 0
20.6565 -82.0708 0
20.3035 -83.4362 0
19.8201 -82.0767 0
20.6565 -82.0708 0
20.3981 -80.5298 0
19.8201 -82.0767 0
19.2704 -80.4588 0
20.9532 -84.7749 0
20.6672 -84.403 0
20.9532 -85.0927 0
20.3276 -84.5551 0
20.6672 -84.403 0
20.3035 -83.4362 0
20.3276 -84.5551 0
19.5401 -83.3481 0
20.9532 -85.0927 0
20.3276 -84.5551 0
20.9532 -85.1145 0
19.5626 -84.4095 0
20.3276 -84.5551 0
19.5401 -83.3481 0
19.5626 -84.4095 0
18.3378 -83.0238 0
20.3035 -83.4362 0
19.8201 -82.0767 0
19.5401 -83.3481 0
18.6814 -81.8956 0
19.8201 -82.0767 0
19.2704 -80.4588 0
18.6814 -81.8956 0
17.8426 -80.2514 0
19.5401 -83.3481 0
18.6814 -81.8956 0
18.3378 -83.0238 0
17.2301 -81.5818 0
18.6814 -81.8956 0
17.8426 -80.2514 0
17.2301 -81.5818 0
16.1628 -79.9398 0
21.3631 -80.4825 0
21.3285 -78.7325 0
20.3981 -80.5298 0
20.0972 -78.7213 0
21.3285 -78.7325 0
21.2744 -76.7071 0
20.0972 -78.7213 0
19.7838 -76.662 0
20.3981 -80.5298 0
20.0972 -78.7213 0
19.2704 -80.4588 0
18.7059 -78.6096 0
20.0972 -78.7213 0
19.7838 -76.662 0
18.7059 -78.6096 0
18.1447 -76.5281 0
21.2744 -76.7071 0
21.2185 -74.416 0
19.7838 -76.662 0
19.4742 -74.3544 0
21.2185 -74.416 0
21.1697 -71.8653 0
19.4742 -74.3544 0
19.1775 -71.7985 0
19.7838 -76.662 0
19.4742 -74.3544 0
18.1447 -76.5281 0
17.5961 -74.2106 0
19.4742 -74.3544 0
19.1775 -71.7985 0
17.5961 -74.2106 0
17.0654 -71.6533 0
19.2704 -80.4588 0
18.7059 -78.6096 0
17.8426 -80.2514 0
17.0262 -78.3918 0
18.7059 -78.6096 0
18.1447 -76.5281 0
17.0262 -78.3918 0
16.232 -76.3077 0
17.8426 -80.2514 0
17.0262 -78.3918 0
16.1628 -79.9398 0
15.1195 -78.0862 0
17.0262 -78.3918 0
16.232 -76.3077 0
15.1195 -78.0862 0
14.0967 -76.0083 0
18.1447 -76.5281 0
17.5961 -74.2106 0
16.232 -76.3077 0
15.4605 -73.9914 0
17.5961 -74.2106 0
17.0654 -71.6533 0
15.4605 -73.9914 0
14.7121 -71.4385 0
16.232 -76.3077 0
15.4605 -73.9914 0
14.0967 -76.0083 0
13.0941 -73.6989 0
15.4605 -73.9914 0
14.7121 -71.4385 0
13.0941 -73.6989 0
12.1132 -71.1535 0
11.8945 -71.2561 0
12.9068 -73.7763 0
14.4611 -71.5433 0
15.2047 -74.0736 0
12.9068 -73.7763 0
13.9566 -76.0189 0
15.2047 -74.0736 0
15.9708 -76.3264 0
14.4611 -71.5433 0
15.2047 -74.0736 0
16.725 -71.741 0
17.204 -74.2785 0
15.2047 -74.0736 0
15.9708 -76.3264 0
17.204 -74.2785 0
17.6935 -76.5399 0
13.9566 -76.0189 0
15.0439 -77.9675 0
15.9708 -76.3264 0
16.759 -78.2853 0
15.0439 -77.9675 0
16.1679 -79.6043 0
16.759 -78.2853 0
17.5682 -79.9322 0
15.9708 -76.3264 0
16.759 -78.2853 0
17.6935 -76.5399 0
18.1955 -78.5094 0
16.759 -78.2853 0
17.5682 -79.9322 0
18.1955 -78.5094 0
18.7123 -80.1695 0
16.725 -71.741 0
17.204 -74.2785 0
18.7698 -71.8477 0
18.9813 -74.3918 0
17.204 -74.2785 0
17.6935 -76.5399 0
18.9813 -74.3918 0
19.193 -76.6659 0
18.7698 -71.8477 0
18.9813 -74.3918 0
20.7367 -71.8653 0
20.688 -74.416 0
18.9813 -74.3918 0
19.193 -76.6659 0
20.688 -74.416 0
20.6321 -76.7071 0
17.6935 -76.5399 0
18.1955 -78.5094 0
19.193 -76.6659 0
19.411 -78.6575 0
18.1955 -78.5094 0
18.7123 -80.1695 0
19.411 -78.6575 0
19.6458 -80.3518 0
19.193 -76.6659 0
19.411 -78.6575 0
20.6321 -76.7071 0
20.578 -78.7325 0
19.411 -78.6575 0
19.6458 -80.3518 0
20.578 -78.7325 0
20.5434 -80.4825 0
16.1679 -79.6043 0
17.3266 -80.9099 0
17.5682 -79.9322 0
18.3964 -81.2472 0
17.3266 -80.9099 0
18.5157 -81.8635 0
18.3964 -81.2472 0
19.2399 -82.2088 0
17.5682 -79.9322 0
18.3964 -81.2472 0
18.7123 -80.1695 0
19.2464 -81.5005 0
18.3964 -81.2472 0
19.2399 -82.2088 0
19.2464 -81.5005 0
19.7996 -82.4796 0
18.5157 -81.8635 0
19.7281 -82.4457 0
19.2399 -82.2088 0
20.0939 -82.7964 0
19.7281 -82.4457 0
20.9532 -82.6416 0
20.0939 -82.7964 0
20.9532 -82.9942 0
19.2399 -82.2088 0
20.0939 -82.7964 0
19.7996 -82.4796 0
20.3707 -83.0818 0
20.0939 -82.7964 0
20.9532 -82.9942 0
20.3707 -83.0818 0
20.9532 -83.2854 0
18.7123 -80.1695 0
19.2464 -81.5005 0
19.6458 -80.3518 0
19.91 -81.731 0
19.2464 -81.5005 0
19.7996 -82.4796 0
19.91 -81.731 0
20.2162 -82.7659 0
19.6458 -80.3518 0
19.91 -81.731 0
20.5434 -80.4825 0
20.5525 -81.9341 0
19.91 -81.731 0
20.2162 -82.7659 0
20.5525 -81.9341 0
20.6236 -83.0505 0
19.7996 -82.4796 0
20.3707 -83.0818 0
20.2162 -82.7659 0
20.5687 -83.4155 0
20.3707 -83.0818 0
20.9532 -83.2854 0
20.5687 -83.4155 0
20.9532 -83.6381 0
20.2162 -82.7659 0
20.5687 -83.4155 0
20.6236 -83.0505 0
20.7638 -83.7688 0
20.5687 -83.4155 0
20.9532 -83.6381 0
20.7638 -83.7688 0
20.9532 -84.0194 0
20.7367 -71.8653 0
20.688 -74.416 0
22.7289 -71.7985 0
22.4323 -74.3544 0
20.688 -74.416 0
20.6321 -76.7071 0
22.4323 -74.3544 0
22.1227 -76.662 0
22.7289 -71.7985 0
22.4323 -74.3544 0
24.8411 -71.6533 0
24.3104 -74.2106 0
22.4323 -74.3544 0
22.1227 -76.662 0
24.3104 -74.2106 0
23.7617 -76.5281 0
20.6321 -76.7071 0
20.578 -78.7325 0
22.1227 -76.662 0
21.8093 -78.7213 0
20.578 -78.7325 0
20.5434 -80.4825 0
21.8093 -78.7213 0
21.5084 -80.5298 0
22.1227 -76.662 0
21.8093 -78.7213 0
23.7617 -76.5281 0
23.2006 -78.6096 0
21.8093 -78.7213 0
21.5084 -80.5298 0
23.2006 -78.6096 0
22.6361 -80.4588 0
24.8411 -71.6533 0
24.3104 -74.2106 0
27.1943 -71.4385 0
26.446 -73.9914 0
24.3104 -74.2106 0
23.7617 -76.5281 0
26.446 -73.9914 0
25.6744 -76.3077 0
27.1943 -71.4385 0
26.446 -73.9914 0
29.7932 -71.1535 0
28.8123 -73.6989 0
26.446 -73.9914 0
25.6744 -76.3077 0
28.8123 -73.6989 0
27.8098 -76.0083 0
23.7617 -76.5281 0
23.2006 -78.6096 0
25.6744 -76.3077 0
24.8803 -78.3918 0
23.2006 -78.6096 0
22.6361 -80.4588 0
24.8803 -78.3918 0
24.0639 -80.2514 0
25.6744 -76.3077 0
24.8803 -78.3918 0
27.8098 -76.0083 0
26.787 -78.0862 0
24.8803 -78.3918 0
24.0639 -80.2514 0
26.787 -78.0862 0
25.7437 -79.9398 0
20.5434 -80.4825 0
20.5525 -81.9341 0
21.5084 -80.5298 0
21.25 -82.0708 0
20.5525 -81.9341 0
20.6236 -83.0505 0
21.25 -82.0708 0
21.0686 -83.2914 0
21.5084 -80.5298 0
21.25 -82.0708 0
22.6361 -80.4588 0
22.0864 -82.0767 0
21.25 -82.0708 0
21.0686 -83.2914 0
22.0864 -82.0767 0
21.6029 -83.4362 0
20.6236 -83.0505 0
20.7638 -83.7688 0
21.0686 -83.2914 0
20.9757 -84.1098 0
20.7638 -83.7688 0
20.9532 -84.0194 0
20.9757 -84.1098 0
20.9532 -84.4059 0
21.0686 -83.2914 0
20.9757 -84.1098 0
21.6029 -83.4362 0
21.2392 -84.403 0
20.9757 -84.1098 0
20.9532 -84.4059 0
21.2392 -84.403 0
20.9532 -84.7749 0
22.6361 -80.4588 0
22.0864 -82.0767 0
24.0639 -80.2514 0
23.225 -81.8956 0
22.0864 -82.0767 0
21.6029 -83.4362 0
23.225 -81.8956 0
22.3663 -83.3481 0
24.0639 -80.2514 0
23.225 -81.8956 0
25.7437 -79.9398 0
24.6764 -81.5818 0
23.225 -81.8956 0
22.3663 -83.3481 0
24.6764 -81.5818 0
23.5687 -83.0238 0
21.6029 -83.4362 0
21.2392 -84.403 0
22.3663 -83.3481 0
21.5789 -84.5551 0
21.2392 -84.403 0
20.9532 -84.7749 0
21.5789 -84.5551 0
20.9532 -85.0927 0
22.3663 -83.3481 0
21.5789 -84.5551 0
23.5687 -83.0238 0
22.3438 -84.4095 0
21.5789 -84.5551 0
20.9532 -85.0927 0
22.3438 -84.4095 0
20.9532 -85.1145 0
5.09766 -42.6675 0
5.8235 -46.96 0
9.37889 -42.873 0
9.92401 -47.1761 0
5.8235 -46.96 0
6.58426 -51.0661 0
9.92401 -47.1761 0
10.4963 -51.2928 0
9.37889 -42.873 0
9.92401 -47.1761 0
13.3379 -43.0125 0
13.7038 -47.3254 0
9.92401 -47.1761 0
10.4963 -51.2928 0
13.7038 -47.3254 0
14.0895 -51.4505 0
6.58426 -51.0661 0
7.38026 -54.9769 0
10.4963 -51.2928 0
11.0949 -55.2139 0
7.38026 -54.9769 0
8.21159 -58.6832 0
11.0949 -55.2139 0
11.7194 -58.9304 0
10.4963 -51.2928 0
11.0949 -55.2139 0
14.0895 -51.4505 0
14.4934 -55.3794 0
11.0949 -55.2139 0
11.7194 -58.9304 0
14.4934 -55.3794 0
14.9137 -59.103 0
13.3379 -43.0125 0
13.7038 -47.3254 0
17.1229 -43.0827 0
17.3039 -47.4043 0
13.7038 -47.3254 0
14.0895 -51.4505 0