# vtk DataFile Version 3.0
#This file was generated by the deal.II library on 2020/9/2 at 8:41:40
ASCII
DATASET UNSTRUCTURED_GRID

POINTS 1536 double
5 0 0
5.125 0 0
5 0.125 0
5.125 0.125 0
5.125 0 0
5.25 0 0
5.125 0.125 0
5.25 0.125 0
5 0.125 0
5.125 0.125 0
5 0.25 0
5.125 0.25 0
5.125 0.125 0
5.25 0.125 0
5.125 0.25 0
5.25 0.25 0
5.25 0 0
5.375 0 0
5.25 0.125 0
5.375 0.125 0
5.375 0 0
5.5 0 0
5.375 0.125 0
5.5 0.125 0
5.25 0.125 0
5.375 0.125 0
5.25 0.25 0
5.375 0.25 0
5.375 0.125 0
5.5 0.125 0
5.375 0.25 0
5.5 0.25 0
5 0.25 0
5.125 0.25 0
5 0.375 0
5.125 0.375 0
5.125 0.25 0
5.25 0.25 0
5.125 0.375 0
5.25 0.375 0
5 0.375 0
5.125 0.375 0
5 0.5 0
5.125 0.5 0
5.125 0.375 0
5.25 0.375 0
5.125 0.5 0
5.25 0.5 0
5.25 0.25 0
5.375 0.25 0
5.25 0.375 0
5.375 0.375 0
5.375 0.25 0
5.5 0.25 0
5.375 0.375 0
5.5 0.375 0
5.25 0.375 0
5.375 0.375 0
5.25 0.5 0
5.375 0.5 0
5.375 0.375 0
5.5 0.375 0
5.375 0.5 0
5.5 0.5 0
5.5 0 0
5.625 0 0
5.5 0.125 0
5.625 0.125 0
5.625 0 0
5.75 0 0
5.625 0.125 0
5.75 0.125 0
5.5 0.125 0
5.625 0.125 0
5.5 0.25 0
5.625 0.25 0
5.625 0.125 0
5.75 0.125 0
5.625 0.25 0
5.75 0.25 0
5.75 0 0
5.875 0 0
5.75 0.125 0
5.875 0.125 0
5.875 0 0
6 0 0
5.875 0.125 0
6 0.125 0
5.75 0.125 0
5.875 0.125 0
5.75 0.25 0
5.875 0.25 0
5.875 0.125 0
6 0.125 0
5.875 0.25 0
6 0.25 0
5.5 0.25 0
5.625 0.25 0
5.5 0.375 0
5.625 0.375 0
5.625 0.25 0
5.75 0.25 0
5.625 0.375 0
5.75 0.375 0
5.5 0.375 0
5.625 0.375 0
5.5 0.5 0
5.625 0.5 0
5.625 0.375 0
5.75 0.375 0
5.625 0.5 0
5.75 0.5 0
5.75 0.25 0
5.875 0.25 0
5.75 0.375 0
5.875 0.375 0
5.875 0.25 0
6 0.25 0
5.875 0.375 0
6 0.375 0
5.75 0.375 0
5.875 0.375 0
5.75 0.5 0
5.875 0.5 0
5.875 0.375 0
6 0.375 0
5.875 0.5 0
6 0.5 0
5 0.5 0
5.125 0.5 0
5 0.625 0
5.125 0.625 0
5.125 0.5 0
5.25 0.5 0
5.125 0.625 0
5.25 0.625 0
5 0.625 0
5.125 0.625 0
5 0.75 0
5.125 0.75 0
5.125 0.625 0
5.25 0.625 0
5.125 0.75 0
5.25 0.75 0
5.25 0.5 0
5.375 0.5 0
5.25 0.625 0
5.375 0.625 0
5.375 0.5 0
5.5 0.5 0
5.375 0.625 0
5.5 0.625 0
5.25 0.625 0
5.375 0.625 0
5.25 0.75 0
5.375 0.75 0
5.375 0.625 0
5.5 0.625 0
5.375 0.75 0
5.5 0.75 0
5 0.75 0
5.125 0.75 0
5 0.875 0
5.125 0.875 0
5.125 0.75 0
5.25 0.75 0
5.125 0.875 0
5.25 0.875 0
5 0.875 0
5.125 0.875 0
5 1 0
5.125 1 0
5.125 0.875 0
5.25 0.875 0
5.125 1 0
5.25 1 0
5.25 0.75 0
5.375 0.75 0
5.25 0.875 0
5.375 0.875 0
5.375 0.75 0
5.5 0.75 0
5.375 0.875 0
5.5 0.875 0
5.25 0.875 0
5.375 0.875 0
5.25 1 0
5.375 1 0
5.375 0.875 0
5.5 0.875 0
5.375 1 0
5.5 1 0
5.5 0.5 0
5.625 0.5 0
5.5 0.625 0
5.625 0.625 0
5.625 0.5 0
5.75 0.5 0
5.625 0.625 0
5.75 0.625 0
5.5 0.625 0
5.625 0.625 0
5.5 0.75 0
5.625 0.75 0
5.625 0.625 0
5.75 0.625 0
5.625 0.75 0
5.75 0.75 0
5.75 0.5 0
5.875 0.5 0
5.75 0.625 0
5.875 0.625 0
5.875 0.5 0
6 0.5 0
5.875 0.625 0
6 0.625 0
5.75 0.625 0
5.875 0.625 0
5.75 0.75 0
5.875 0.75 0
5.875 0.625 0
6 0.625 0
5.875 0.75 0
6 0.75 0
5.5 0.75 0
5.625 0.75 0
5.5 0.875 0
5.625 0.875 0
5.625 0.75 0
5.75 0.75 0
5.625 0.875 0
5.75 0.875 0
5.5 0.875 0
5.625 0.875 0
5.5 1 0
5.625 1 0
5.625 0.875 0
5.75 0.875 0
5.625 1 0
5.75 1 0
5.75 0.75 0
5.875 0.75 0
5.75 0.875 0
5.875 0.875 0
5.875 0.75 0
6 0.75 0
5.875 0.875 0
6 0.875 0
5.75 0.875 0
5.875 0.875 0
5.75 1 0
5.875 1 0
5.875 0.875 0
6 0.875 0
5.875 1 0
6 1 0
4 0 0
4.125 0 0
4 0.125 0
4.125 0.125 0
4.125 0 0
4.25 0 0
4.125 0.125 0
4.25 0.125 0
4 0.125 0
4.125 0.125 0
4 0.25 0
4.125 0.25 0
4.125 0.125 0
4.25 0.125 0
4.125 0.25 0
4.25 0.25 0
4.25 0 0
4.375 0 0
4.25 0.125 0
4.375 0.125 0
4.375 0 0
4.5 0 0
4.375 0.125 0
4.5 0.125 0
4.25 0.125 0
4.375 0.125 0
4.25 0.25 0
4.375 0.25 0
4.375 0.125 0
4.5 0.125 0
4.375 0.25 0
4.5 0.25 0
4 0.25 0
4.125 0.25 0
4 0.375 0
4.125 0.375 0
4.125 0.25 0
4.25 0.25 0
4.125 0.375 0
4.25 0.375 0
4 0.375 0
4.125 0.375 0
4 0.5 0
4.125 0.5 0
4.125 0.375 0
4.25 0.375 0
4.125 0.5 0
4.25 0.5 0
4.25 0.25 0
4.375 0.25 0
4.25 0.375 0
4.375 0.375 0
4.375 0.25 0
4.5 0.25 0
4.375 0.375 0
4.5 0.375 0
4.25 0.375 0
4.375 0.375 0
4.25 0.5 0
4.375 0.5 0
4.375 0.375 0
4.5 0.375 0
4.375 0.5 0
4.5 0.5 0
4.5 0 0
4.625 0 0
4.5 0.125 0
4.625 0.125 0
4.625 0 0
4.75 0 0
4.625 0.125 0
4.75 0.125 0
4.5 0.125 0
4.625 0.125 0
4.5 0.25 0
4.625 0.25 0
4.625 0.125 0
4.75 0.125 0
4.625 0.25 0
4.75 0.25 0
4.75 0 0
4.875 0 0
4.75 0.125 0
4.875 0.125 0
4.875 0 0
5 0 0
4.875 0.125 0
5 0.125 0
4.75 0.125 0
4.875 0.125 0
4.75 0.25 0
4.875 0.25 0
4.875 0.125 0
5 0.125 0
4.875 0.25 0
5 0.25 0
4.5 0.25 0
4.625 0.25 0
4.5 0.375 0
4.625 0.375 0
4.625 0.25 0
4.75 0.25 0
4.625 0.375 0
4.75 0.375 0
4.5 0.375 0
4.625 0.375 0
4.5 0.5 0
4.625 0.5 0
4.625 0.375 0
4.75 0.375 0
4.625 0.5 0
4.75 0.5 0
4.75 0.25 0
4.875 0.25 0
4.75 0.375 0
4.875 0.375 0
4.875 0.25 0
5 0.25 0
4.875 0.375 0
5 0.375 0
4.75 0.375 0
4.875 0.375 0
4.75 0.5 0
4.875 0.5 0
4.875 0.375 0
5 0.375 0
4.875 0.5 0
5 0.5 0
4 0.5 0
4.125 0.5 0
4 0.625 0
4.125 0.625 0
4.125 0.5 0
4.25 0.5 0
4.125 0.625 0
4.25 0.625 0
4 0.625 0
4.125 0.625 0
4 0.75 0
4.125 0.75 0
4.125 0.625 0
4.25 0.625 0
4.125 0.75 0
4.25 0.75 0
4.25 0.5 0
4.375 0.5 0
4.25 0.625 0
4.375 0.625 0
4.375 0.5 0
4.5 0.5 0
4.375 0.625 0
4.5 0.625 0
4.25 0.625 0
4.375 0.625 0
4.25 0.75 0
4.375 0.75 0
4.375 0.625 0
4.5 0.625 0
4.375 0.75 0
4.5 0.75 0
4 0.75 0
4.125 0.75 0
4 0.875 0
4.125 0.875 0
4.125 0.75 0
4.25 0.75 0
4.125 0.875 0
4.25 0.875 0
4 0.875 0
4.125 0.875 0
4 1 0
4.125 1 0
4.125 0.875 0
4.25 0.875 0
4.125 1 0
4.25 1 0
4.25 0.75 0
4.375 0.75 0
4.25 0.875 0
4.375 0.875 0
4.375 0.75 0
4.5 0.75 0
4.375 0.875 0
4.5 0.875 0
4.25 0.875 0
4.375 0.875 0
4.25 1 0
4.375 1 0
4.375 0.875 0
4.5 0.875 0
4.375 1 0
4.5 1 0
4.5 0.5 0
4.625 0.5 0
4.5 0.625 0
4.625 0.625 0
4.625 0.5 0
4.75 0.5 0
4.625 0.625 0
4.75 0.625 0
4.5 0.625 0
4.625 0.625 0
4.5 0.75 0
4.625 0.75 0
4.625 0.625 0
4.75 0.625 0
4.625 0.75 0
4.75 0.75 0
4.75 0.5 0
4.875 0.5 0
4.75 0.625 0
4.875 0.625 0
4.875 0.5 0
5 0.5 0
4.875 0.625 0
5 0.625 0
4.75 0.625 0
4.875 0.625 0
4.75 0.75 0
4.875 0.75 0
4.875 0.625 0
5 0.625 0
4.875 0.75 0
5 0.75 0
4.5 0.75 0
4.625 0.75 0
4.5 0.875 0
4.625 0.875 0
4.625 0.75 0
4.75 0.75 0
4.625 0.875 0
4.75 0.875 0
4.5 0.875 0
4.625 0.875 0
4.5 1 0
4.625 1 0
4.625 0.875 0
4.75 0.875 0
4.625 1 0
4.75 1 0
4.75 0.75 0
4.875 0.75 0
4.75 0.875 0
4.875 0.875 0
4.875 0.75 0
5 0.75 0
4.875 0.875 0
5 0.875 0
4.75 0.875 0
4.875 0.875 0
4.75 1 0
4.875 1 0
4.875 0.875 0
5 0.875 0
4.875 1 0
5 1 0
3 0 0
3.125 0 0
3 0.125 0
3.125 0.125 0
3.125 0 0
3.25 0 0
3.125 0.125 0
3.25 0.125 0
3 0.125 0
3.125 0.125 0
3 0.25 0
3.125 0.25 0
3.125 0.125 0
3.25 0.125 0
3.125 0.25 0
3.25 0.25 0
3.25 0 0
3.375 0 0
3.25 0.125 0
3.375 0.125 0
3.375 0 0
3.5 0 0
3.375 0.125 0
3.5 0.125 0
3.25 0.125 0
3.375 0.125 0
3.25 0.25 0
3.375 0.25 0
3.375 0.125 0
3.5 0.125 0
3.375 0.25 0
3.5 0.25 0
3 0.25 0
3.125 0.25 0
3 0.375 0
3.125 0.375 0
3.125 0.25 0
3.25 0.25 0
3.125 0.375 0
3.25 0.375 0
3 0.375 0
3.125 0.375 0
3 0.5 0
3.125 0.5 0
3.125 0.375 0
3.25 0.375 0
3.125 0.5 0
3.25 0.5 0
3.25 0.25 0
3.375 0.25 0
3.25 0.375 0
3.375 0.375 0
3.375 0.25 0
3.5 0.25 0
3.375 0.375 0
3.5 0.375 0
3.25 0.375 0
3.375 0.375 0
3.25 0.5 0
3.375 0.5 0
3.375 0.375 0
3.5 0.375 0
3.375 0.5 0
3.5 0.5 0
3.5 0 0
3.625 0 0
3.5 0.125 0
3.625 0.125 0
3.625 0 0
3.75 0 0
3.625 0.125 0
3.75 0.125 0
3.5 0.125 0
3.625 0.125 0
3.5 0.25 0
3.625 0.25 0
3.625 0.125 0
3.75 0.125 0
3.625 0.25 0
3.75 0.25 0
3.75 0 0
3.875 0 0
3.75 0.125 0
3.875 0.125 0
3.875 0 0
4 0 0
3.875 0.125 0
4 0.125 0
3.75 0.125 0
3.875 0.125 0
3.75 0.25 0
3.875 0.25 0
3.875 0.125 0
4 0.125 0
3.875 0.25 0
4 0.25 0
3.5 0.25 0
3.625 0.25 0
3.5 0.375 0
3.625 0.375 0
3.625 0.25 0
3.75 0.25 0
3.625 0.375 0
3.75 0.375 0
3.5 0.375 0
3.625 0.375 0
3.5 0.5 0
3.625 0.5 0
3.625 0.375 0
3.75 0.375 0
3.625 0.5 0
3.75 0.5 0
3.75 0.25 0
3.875 0.25 0
3.75 0.375 0
3.875 0.375 0
3.875 0.25 0
4 0.25 0
3.875 0.375 0
4 0.375 0
3.75 0.375 0
3.875 0.375 0
3.75 0.5 0
3.875 0.5 0
3.875 0.375 0
4 0.375 0
3.875 0.5 0
4 0.5 0
3 0.5 0
3.125 0.5 0
3 0.625 0
3.125 0.625 0
3.125 0.5 0
3.25 0.5 0
3.125 0.625 0
3.25 0.625 0
3 0.625 0
3.125 0.625 0
3 0.75 0
3.125 0.75 0
3.125 0.625 0
3.25 0.625 0
3.125 0.75 0
3.25 0.75 0
3.25 0.5 0
3.375 0.5 0
3.25 0.625 0
3.375 0.625 0
3.375 0.5 0
3.5 0.5 0
3.375 0.625 0
3.5 0.625 0
3.25 0.625 0
3.375 0.625 0
3.25 0.75 0
3.375 0.75 0
3.375 0.625 0
3.5 0.625 0
3.375 0.75 0
3.5 0.75 0
3 0.75 0
3.125 0.75 0
3 0.875 0
3.125 0.875 0
3.125 0.75 0
3.25 0.75 0
3.125 0.875 0
3.25 0.875 0
3 0.875 0
3.125 0.875 0
3 1 0
3.125 1 0
3.125 0.875 0
3.25 0.875 0
3.125 1 0
3.25 1 0
3.25 0.75 0
3.375 0.75 0
3.25 0.875 0
3.375 0.875 0
3.375 0.75 0
3.5 0.75 0
3.375 0.875 0
3.5 0.875 0
3.25 0.875 0
3.375 0.875 0
3.25 1 0
3.375 1 0
3.375 0.875 0
3.5 0.875 0
3.375 1 0
3.5 1 0
3.5 0.5 0
3.625 0.5 0
3.5 0.625 0
3.625 0.625 0
3.625 0.5 0
3.75 0.5 0
3.625 0.625 0
3.75 0.625 0
3.5 0.625 0
3.625 0.625 0
3.5 0.75 0
3.625 0.75 0
3.625 0.625 0
3.75 0.625 0
3.625 0.75 0
3.75 0.75 0
3.75 0.5 0
3.875 0.5 0
3.75 0.625 0
3.875 0.625 0
3.875 0.5 0
4 0.5 0
3.875 0.625 0
4 0.625 0
3.75 0.625 0
3.875 0.625 0
3.75 0.75 0
3.875 0.75 0
3.875 0.625 0
4 0.625 0
3.875 0.75 0
4 0.75 0
3.5 0.75 0
3.625 0.75 0
3.5 0.875 0
3.625 0.875 0
3.625 0.75 0
3.75 0.75 0
3.625 0.875 0
3.75 0.875 0
3.5 0.875 0
3.625 0.875 0
3.5 1 0
3.625 1 0
3.625 0.875 0
3.75 0.875 0
3.625 1 0
3.75 1 0
3.75 0.75 0
3.875 0.75 0
3.75 0.875 0
3.875 0.875 0
3.875 0.75 0
4 0.75 0
3.875 0.875 0
4 0.875 0
3.75 0.875 0
3.875 0.875 0
3.75 1 0
3.875 1 0
3.875 0.875 0
4 0.875 0
3.875 1 0
4 1 0
2 0 0
2.125 0 0
2 0.125 0
2.125 0.125 0
2.125 0 0
2.25 0 0
2.125 0.125 0
2.25 0.125 0
2 0.125 0
2.125 0.125 0
2 0.25 0
2.125 0.25 0
2.125 0.125 0
2.25 0.125 0
2.125 0.25 0
2.25 0.25 0
2.25 0 0
2.375 0 0
2.25 0.125 0
2.375 0.125 0
2.375 0 0
2.5 0 0
2.375 0.125 0
2.5 0.125 0
2.25 0.125 0
2.375 0.125 0
2.25 0.25 0
2.375 0.25 0
2.375 0.125 0
2.5 0.125 0
2.375 0.25 0
2.5 0.25 0
2 0.25 0
2.125 0.25 0
2 0.375 0
2.125 0.375 0
2.125 0.25 0
2.25 0.25 0
2.125 0.375 0
2.25 0.375 0
2 0.375 0
2.125 0.375 0
2 0.5 0
2.125 0.5 0
2.125 0.375 0
2.25 0.375 0
2.125 0.5 0
2.25 0.5 0
2.25 0.25 0
2.375 0.25 0
2.25 0.375 0
2.375 0.375 0
2.375 0.25 0
[...]
POINT_DATA 1536
VECTORS displacements double
39.3538 -46.1323 0
40.088 -41.2416 0
34.6393 -46.3611 0
35.2258 -41.4461 0
40.088 -41.2416 0
40.8294 -36.1762 0
35.2258 -41.4461 0
35.7505 -36.3943 0
34.6393 -46.3611 0
35.2258 -41.4461 0
30.5614 -46.5474 0
30.93 -41.5939 0
35.2258 -41.4461 0
35.7505 -36.3943 0
30.93 -41.5939 0
31.2812 -36.5225 0
40.8294 -36.1762 0
41.5095 -30.9259 0
35.7505 -36.3943 0
36.2899 -31.1081 0
41.5095 -30.9259 0
42.2148 -25.5035 0
36.2899 -31.1081 0
36.7668 -25.7126 0
35.7505 -36.3943 0
36.2899 -31.1081 0
31.2812 -36.5225 0
31.6268 -31.2356 0
36.2899 -31.1081 0
36.7668 -25.7126 0
31.6268 -31.2356 0
31.9158 -25.8005 0
30.5614 -46.5474 0
30.93 -41.5939 0
26.5724 -46.6 0
26.7989 -41.7272 0
30.93 -41.5939 0
31.2812 -36.5225 0
26.7989 -41.7272 0
26.9382 -36.5895 0
26.5724 -46.6 0
26.7989 -41.7272 0
22.7161 -46.6613 0
22.7023 -41.6937 0
26.7989 -41.7272 0
26.9382 -36.5895 0
22.7023 -41.6937 0
22.7326 -36.6282 0
31.2812 -36.5225 0
31.6268 -31.2356 0
26.9382 -36.5895 0
27.0669 -31.2721 0
31.6268 -31.2356 0
31.9158 -25.8005 0
27.0669 -31.2721 0
27.2137 -25.8114 0
26.9382 -36.5895 0
27.0669 -31.2721 0
22.7326 -36.6282 0
22.6594 -31.2308 0
27.0669 -31.2721 0
27.2137 -25.8114 0
22.6594 -31.2308 0
22.6163 -25.7723 0
42.2148 -25.5035 0
42.864 -19.9098 0
36.7668 -25.7126 0
37.2649 -20.06 0
42.864 -19.9098 0
43.641 -14.0642 0
37.2649 -20.06 0
37.623 -14.3048 0
36.7668 -25.7126 0
37.2649 -20.06 0
31.9158 -25.8005 0
32.2071 -20.1367 0
37.2649 -20.06 0
37.623 -14.3048 0
32.2071 -20.1367 0
32.4145 -14.3353 0
43.641 -14.0642 0
44.457 -7.91382 0
37.623 -14.3048 0
37.8489 -7.8208 0
44.457 -7.91382 0
44.8851 0 0
37.8489 -7.8208 0
38.0624 -1.43323 0
37.623 -14.3048 0
37.8489 -7.8208 0
32.4145 -14.3353 0
32.433 -8.1406 0
37.8489 -7.8208 0
38.0624 -1.43323 0
32.433 -8.1406 0
32.5536 -2.32625 0
31.9158 -25.8005 0
32.2071 -20.1367 0
27.2137 -25.8114 0
27.304 -20.1902 0
32.2071 -20.1367 0
32.4145 -14.3353 0
27.304 -20.1902 0
27.2706 -14.3998 0
27.2137 -25.8114 0
27.304 -20.1902 0
22.6163 -25.7723 0
22.5162 -20.2341 0
27.304 -20.1902 0
27.2706 -14.3998 0
22.5162 -20.2341 0
22.3689 -14.601 0
32.4145 -14.3353 0
32.433 -8.1406 0
27.2706 -14.3998 0
27.2597 -8.60843 0
32.433 -8.1406 0
32.5536 -2.32625 0
27.2597 -8.60843 0
27.2892 -2.85123 0
27.2706 -14.3998 0
27.2597 -8.60843 0
22.3689 -14.601 0
22.2828 -8.92838 0
27.2597 -8.60843 0
27.2892 -2.85123 0
22.2828 -8.92838 0
22.3674 -3.52229 0
22.7161 -46.6613 0
22.7023 -41.6937 0
18.8288 -46.613 0
18.6481 -41.6729 0
22.7023 -41.6937 0
22.7326 -36.6282 0
18.6481 -41.6729 0
18.4036 -36.474 0
18.8288 -46.613 0
18.6481 -41.6729 0
14.822 -46.4524 0
14.4884 -41.5216 0
18.6481 -41.6729 0
18.4036 -36.474 0
14.4884 -41.5216 0
14.1012 -36.371 0
22.7326 -36.6282 0
22.6594 -31.2308 0
18.4036 -36.474 0
18.256 -31.1838 0
22.6594 -31.2308 0
22.6163 -25.7723 0
18.256 -31.1838 0
18.023 -25.7755 0
18.4036 -36.474 0
18.256 -31.1838 0
14.1012 -36.371 0
13.6878 -31.1202 0
18.256 -31.1838 0
18.023 -25.7755 0
13.6878 -31.1202 0
13.3214 -25.7566 0
14.822 -46.4524 0
14.4884 -41.5216 0
10.6254 -46.2339 0
10.0274 -41.3273 0
14.4884 -41.5216 0
14.1012 -36.371 0
10.0274 -41.3273 0
9.47189 -36.2598 0
10.6254 -46.2339 0
10.0274 -41.3273 0
6.01536 -46.0072 0
5.35339 -41.1115 0
10.0274 -41.3273 0
9.47189 -36.2598 0
5.35339 -41.1115 0
4.8766 -36.1892 0
14.1012 -36.371 0
13.6878 -31.1202 0
9.47189 -36.2598 0
9.04086 -31.0357 0
13.6878 -31.1202 0
13.3214 -25.7566 0
9.04086 -31.0357 0
8.71965 -25.7919 0
9.47189 -36.2598 0
9.04086 -31.0357 0
4.8766 -36.1892 0
4.32302 -30.9888 0
9.04086 -31.0357 0
8.71965 -25.7919 0
4.32302 -30.9888 0
3.72362 -25.6677 0
22.6163 -25.7723 0
22.5162 -20.2341 0
18.023 -25.7755 0
17.7555 -20.2926 0
22.5162 -20.2341 0
22.3689 -14.601 0
17.7555 -20.2926 0
17.6009 -14.7773 0
18.023 -25.7755 0
17.7555 -20.2926 0
13.3214 -25.7566 0
13.1033 -20.374 0
17.7555 -20.2926 0
17.6009 -14.7773 0
13.1033 -20.374 0
12.9006 -14.8896 0
22.3689 -14.601 0
22.2828 -8.92838 0
17.6009 -14.7773 0
17.5289 -9.24135 0
22.2828 -8.92838 0
22.3674 -3.52229 0
17.5289 -9.24135 0
17.6003 -4.06728 0
17.6009 -14.7773 0
17.5289 -9.24135 0
12.9006 -14.8896 0
12.8139 -9.4786 0
17.5289 -9.24135 0
17.6003 -4.06728 0
12.8139 -9.4786 0
12.8427 -4.38677 0
13.3214 -25.7566 0
13.1033 -20.374 0
8.71965 -25.7919 0
8.3575 -20.3631 0
13.1033 -20.374 0
12.9006 -14.8896 0
8.3575 -20.3631 0
8.09918 -14.921 0
8.71965 -25.7919 0
8.3575 -20.3631 0
3.72362 -25.6677 0
3.26887 -20.2714 0
8.3575 -20.3631 0
8.09918 -14.921 0
3.26887 -20.2714 0
2.99309 -14.8817 0
12.9006 -14.8896 0
12.8139 -9.4786 0
8.09918 -14.921 0
7.97385 -9.59094 0
12.8139 -9.4786 0
12.8427 -4.38677 0
7.97385 -9.59094 0
7.9522 -4.48929 0
8.09918 -14.921 0
7.97385 -9.59094 0
2.99309 -14.8817 0
2.90121 -9.60922 0
7.97385 -9.59094 0
7.9522 -4.48929 0
2.90121 -9.60922 0
2.89545 -4.49573 0
32.1486 -77.6428 0
33.1804 -74.5508 0
29.323 -77.9381 0
30.056 -74.8434 0
33.1804 -74.5508 0
34.1488 -71.1851 0
30.056 -74.8434 0
30.7917 -71.4599 0
29.323 -77.9381 0
30.056 -74.8434 0
26.9798 -78.1418 0
27.409 -75.027 0
30.056 -74.8434 0
30.7917 -71.4599 0
27.409 -75.027 0
27.8571 -71.6496 0
34.1488 -71.1851 0
35.096 -67.5882 0
30.7917 -71.4599 0
31.4885 -67.8447 0
35.096 -67.5882 0
36.0386 -63.7429 0
31.4885 -67.8447 0
32.1244 -64.0084 0
30.7917 -71.4599 0
31.4885 -67.8447 0
27.8571 -71.6496 0
28.3231 -67.9957 0
31.4885 -67.8447 0
32.1244 -64.0084 0
28.3231 -67.9957 0
28.8032 -64.1478 0
26.9798 -78.1418 0
27.409 -75.027 0
24.8495 -78.2247 0
24.9935 -75.1099 0
27.409 -75.027 0
27.8571 -71.6496 0
24.9935 -75.1099 0
25.1652 -71.7128 0
24.8495 -78.2247 0
24.9935 -75.1099 0
22.7534 -78.1824 0
22.6382 -75.0684 0
24.9935 -75.1099 0
25.1652 -71.7128 0
22.6382 -75.0684 0
22.5848 -71.6709 0
27.8571 -71.6496 0
28.3231 -67.9957 0
25.1652 -71.7128 0
25.3897 -68.0747 0
28.3231 -67.9957 0
28.8032 -64.1478 0
25.3897 -68.0747 0
25.6059 -64.211 0
25.1652 -71.7128 0
25.3897 -68.0747 0
22.5848 -71.6709 0
22.5543 -68.0622 0
25.3897 -68.0747 0
25.6059 -64.211 0
22.5543 -68.0622 0
22.5762 -64.1927 0
36.0386 -63.7429 0
36.9178 -59.6278 0
32.1244 -64.0084 0
32.7857 -59.8795 0
36.9178 -59.6278 0
37.7416 -55.3204 0
32.7857 -59.8795 0
33.4473 -55.5588 0
32.1244 -64.0084 0
32.7857 -59.8795 0
28.8032 -64.1478 0
29.26 -60.0809 0
32.7857 -59.8795 0
33.4473 -55.5588 0
29.26 -60.0809 0
29.7091 -55.746 0
37.7416 -55.3204 0
38.5607 -50.836 0
33.4473 -55.5588 0
34.0583 -51.0708 0
38.5607 -50.836 0
39.3538 -46.1323 0
34.0583 -51.0708 0
34.6393 -46.3611 0
33.4473 -55.5588 0
34.0583 -51.0708 0
29.7091 -55.746 0
30.1305 -51.225 0
34.0583 -51.0708 0
34.6393 -46.3611 0
30.1305 -51.225 0
30.5614 -46.5474 0
28.8032 -64.1478 0
29.26 -60.0809 0
25.6059 -64.211 0
25.8603 -60.1445 0
29.26 -60.0809 0
29.7091 -55.746 0
25.8603 -60.1445 0
26.1212 -55.8709 0
25.6059 -64.211 0
25.8603 -60.1445 0
22.5762 -64.1927 0
22.5473 -60.1334 0
25.8603 -60.1445 0
26.1212 -55.8709 0
22.5473 -60.1334 0
22.597 -55.8586 0
29.7091 -55.746 0
30.1305 -51.225 0
26.1212 -55.8709 0
26.3602 -51.3652 0
30.1305 -51.225 0
30.5614 -46.5474 0
26.3602 -51.3652 0
26.5724 -46.6 0
26.1212 -55.8709 0
26.3602 -51.3652 0
22.597 -55.8586 0
22.6792 -51.3966 0
26.3602 -51.3652 0
26.5724 -46.6 0
22.6792 -51.3966 0
22.7161 -46.6613 0
22.7534 -78.1824 0
22.6382 -75.0684 0
20.6216 -78.0241 0
20.2755 -74.9072 0
22.6382 -75.0684 0
22.5848 -71.6709 0
20.2755 -74.9072 0
19.9903 -71.5572 0
20.6216 -78.0241 0
20.2755 -74.9072 0
18.4003 -77.7783 0
17.8698 -74.6941 0
20.2755 -74.9072 0
19.9903 -71.5572 0
17.8698 -74.6941 0
17.3634 -71.367 0
22.5848 -71.6709 0
22.5543 -68.0622 0
19.9903 -71.5572 0
19.7547 -67.9566 0
22.5543 -68.0622 0
22.5762 -64.1927 0
19.7547 -67.9566 0
19.5154 -64.1201 0
19.9903 -71.5572 0
19.7547 -67.9566 0
17.3634 -71.367 0
16.8805 -67.7994 0
19.7547 -67.9566 0
19.5154 -64.1201 0
16.8805 -67.7994 0
16.4456 -63.9647 0
18.4003 -77.7783 0
17.8698 -74.6941 0
16.0507 -77.5097 0
15.2736 -74.4419 0
17.8698 -74.6941 0
17.3634 -71.367 0
15.2736 -74.4419 0
14.5447 -71.1404 0
16.0507 -77.5097 0
15.2736 -74.4419 0
13.162 -77.208 0
12.1701 -74.1529 0
15.2736 -74.4419 0
14.5447 -71.1404 0
12.1701 -74.1529 0
11.1861 -70.854 0
17.3634 -71.367 0
16.8805 -67.7994 0
14.5447 -71.1404 0
13.8229 -67.5728 0
16.8805 -67.7994 0
16.4456 -63.9647 0
13.8229 -67.5728 0
13.1392 -63.7775 0
14.5447 -71.1404 0
13.8229 -67.5728 0
11.1861 -70.854 0
10.2431 -67.3018 0
13.8229 -67.5728 0
13.1392 -63.7775 0
10.2431 -67.3018 0
9.32147 -63.5143 0
22.5762 -64.1927 0
22.5473 -60.1334 0
19.5154 -64.1201 0
19.3508 -60.0499 0
22.5473 -60.1334 0
22.597 -55.8586 0
19.3508 -60.0499 0
19.1303 -55.7816 0
19.5154 -64.1201 0
19.3508 -60.0499 0
16.4456 -63.9647 0
16 -59.9267 0
19.3508 -60.0499 0
19.1303 -55.7816 0
16 -59.9267 0
15.5983 -55.6426 0
22.597 -55.8586 0
22.6792 -51.3966 0
19.1303 -55.7816 0
18.9482 -51.304 0
22.6792 -51.3966 0
22.7161 -46.6613 0
18.9482 -51.304 0
18.8288 -46.613 0
19.1303 -55.7816 0
18.9482 -51.304 0
15.5983 -55.6426 0
15.1977 -51.141 0
18.9482 -51.304 0
18.8288 -46.613 0
15.1977 -51.141 0
14.822 -46.4524 0
16.4456 -63.9647 0
16 -59.9267 0
13.1392 -63.7775 0
12.4883 -59.7323 0
16 -59.9267 0
15.5983 -55.6426 0
12.4883 -59.7323 0
11.8401 -55.4448 0
13.1392 -63.7775 0
12.4883 -59.7323 0
9.32147 -63.5143 0
8.42638 -59.4759 0
12.4883 -59.7323 0
11.8401 -55.4448 0
8.42638 -59.4759 0
7.58498 -55.2035 0
15.5983 -55.6426 0
15.1977 -51.141 0
11.8401 -55.4448 0
11.231 -50.952 0
15.1977 -51.141 0
14.822 -46.4524 0
11.231 -50.952 0
10.6254 -46.2339 0
11.8401 -55.4448 0
11.231 -50.952 0
7.58498 -55.2035 0
6.76842 -50.7139 0
11.231 -50.952 0
10.6254 -46.2339 0
6.76842 -50.7139 0
6.01536 -46.0072 0
22.4425 -89.4813 0
23.7373 -89.2965 0
22.4425 -89.8587 0
23.3883 -89.6725 0
23.7373 -89.2965 0
25.0207 -88.7477 0
23.3883 -89.6725 0
24.3313 -89.1197 0
22.4425 -89.8587 0
23.3883 -89.6725 0
22.4425 -90.4529 0
23.2963 -90.2338 0
23.3883 -89.6725 0
24.3313 -89.1197 0
23.2963 -90.2338 0
24.0761 -89.5737 0
25.0207 -88.7477 0
26.2842 -87.8495 0
24.3313 -89.1197 0
25.2666 -88.214 0
26.2842 -87.8495 0
27.5351 -86.5921 0
25.2666 -88.214 0
26.1528 -86.9436 0
24.3313 -89.1197 0
25.2666 -88.214 0
24.0761 -89.5737 0
24.7276 -88.5622 0
25.2666 -88.214 0
26.1528 -86.9436 0
24.7276 -88.5622 0
25.1901 -87.2399 0
22.4425 -90.4529 0
23.2963 -90.2338 0
22.4425 -91.0782 0
23.0909 -90.8388 0
23.2963 -90.2338 0
24.0761 -89.5737 0
23.0909 -90.8388 0
23.6664 -90.146 0
22.4425 -91.0782 0
23.0909 -90.8388 0
22.4425 -91.686 0
22.8638 -91.4339 0
23.0909 -90.8388 0
23.6664 -90.146 0
22.8638 -91.4339 0
23.1942 -90.6861 0
24.0761 -89.5737 0
24.7276 -88.5622 0
23.6664 -90.146 0
24.0831 -88.9652 0
24.7276 -88.5622 0
25.1901 -87.2399 0
24.0831 -88.9652 0
24.3538 -87.5544 0
23.6664 -90.146 0
24.0831 -88.9652 0
23.1942 -90.6861 0
23.347 -89.3614 0
24.0831 -88.9652 0
24.3538 -87.5544 0
23.347 -89.3614 0
23.3585 -87.7584 0
27.5351 -86.5921 0
28.7708 -84.9203 0
26.1528 -86.9436 0
26.9718 -85.2654 0
28.7708 -84.9203 0
29.9386 -82.8511 0
26.9718 -85.2654 0
27.801 -83.1695 0
26.1528 -86.9436 0
26.9718 -85.2654 0
25.1901 -87.2399 0
25.673 -85.4936 0
26.9718 -85.2654 0
27.801 -83.1695 0
25.673 -85.4936 0
26.1297 -83.4042 0
29.9386 -82.8511 0
31.0748 -80.4249 0
27.801 -83.1695 0
28.5622 -80.7415 0
31.0748 -80.4249 0
32.1486 -77.6428 0
28.5622 -80.7415 0
29.323 -77.9381 0
27.801 -83.1695 0
28.5622 -80.7415 0
26.1297 -83.4042 0
26.5347 -80.9196 0
28.5622 -80.7415 0
29.323 -77.9381 0
26.5347 -80.9196 0
26.9798 -78.1418 0
25.1901 -87.2399 0
25.673 -85.4936 0
24.3538 -87.5544 0
24.5138 -85.6821 0
25.673 -85.4936 0
26.1297 -83.4042 0
24.5138 -85.6821 0
24.6183 -83.5224 0
24.3538 -87.5544 0
24.5138 -85.6821 0
23.3585 -87.7584 0
23.2695 -85.7989 0
24.5138 -85.6821 0
24.6183 -83.5224 0
23.2695 -85.7989 0
23.0959 -83.5277 0
26.1297 -83.4042 0
26.5347 -80.9196 0
24.6183 -83.5224 0
24.7445 -81.0024 0
26.5347 -80.9196 0
26.9798 -78.1418 0
24.7445 -81.0024 0
24.8495 -78.2247 0
24.6183 -83.5224 0
24.7445 -81.0024 0
23.0959 -83.5277 0
22.9247 -81.0128 0
24.7445 -81.0024 0
24.8495 -78.2247 0
22.9247 -81.0128 0
22.7534 -78.1824 0
22.4425 -91.686 0
22.8638 -91.4339 0
22.4425 -92.3083 0
22.6109 -92.0045 0
22.8638 -91.4339 0
23.1942 -90.6861 0
22.6109 -92.0045 0
22.6818 -91.1716 0
22.4425 -92.3083 0
22.6109 -92.0045 0
22.4425 -92.8725 0
22.223 -92.5886 0
22.6109 -92.0045 0
22.6818 -91.1716 0
22.223 -92.5886 0
21.9348 -91.3722 0
23.1942 -90.6861 0
23.347 -89.3614 0
22.6818 -91.1716 0
22.5138 -89.6317 0
23.347 -89.3614 0
23.3585 -87.7584 0
22.5138 -89.6317 0
22.249 -87.8396 0
22.6818 -91.1716 0
22.5138 -89.6317 0
21.9348 -91.3722 0
21.5108 -89.7234 0
22.5138 -89.6317 0
22.249 -87.8396 0
21.5108 -89.7234 0
20.9428 -87.7802 0
22.4425 -92.8725 0
22.223 -92.5886 0
22.4425 -93.4975 0
21.8066 -92.7876 0
22.223 -92.5886 0
21.9348 -91.3722 0
21.8066 -92.7876 0
21.0592 -91.3541 0
22.4425 -93.4975 0
21.8066 -92.7876 0
22.4425 -93.4401 0
20.9333 -92.6385 0
21.8066 -92.7876 0
21.0592 -91.3541 0
20.9333 -92.6385 0
19.6332 -91.0394 0
21.9348 -91.3722 0
21.5108 -89.7234 0
21.0592 -91.3541 0
20.2466 -89.6317 0
21.5108 -89.7234 0
20.9428 -87.7802 0
20.2466 -89.6317 0
19.3864 -87.6289 0
21.0592 -91.3541 0
20.2466 -89.6317 0
19.6332 -91.0394 0
18.4425 -89.3059 0
20.2466 -89.6317 0
19.3864 -87.6289 0
18.4425 -89.3059 0
17.3288 -87.3053 0
23.3585 -87.7584 0
23.2695 -85.7989 0
22.249 -87.8396 0
21.8414 -85.7747 0
23.2695 -85.7989 0
23.0959 -83.5277 0
21.8414 -85.7747 0
21.433 -83.4663 0
22.249 -87.8396 0
21.8414 -85.7747 0
20.9428 -87.7802 0
20.3427 -85.6688 0
21.8414 -85.7747 0
21.433 -83.4663 0
20.3427 -85.6688 0
19.652 -83.28 0
23.0959 -83.5277 0
22.9247 -81.0128 0
21.433 -83.4663 0
20.999 -80.8984 0
22.9247 -81.0128 0
22.7534 -78.1824 0
20.999 -80.8984 0
20.6216 -78.0241 0
21.433 -83.4663 0
20.999 -80.8984 0
19.652 -83.28 0
18.9837 -80.58 0
20.999 -80.8984 0
20.6216 -78.0241 0
18.9837 -80.58 0
18.4003 -77.7783 0
20.9428 -87.7802 0
20.3427 -85.6688 0
19.3864 -87.6289 0
18.5285 -85.4019 0
20.3427 -85.6688 0
19.652 -83.28 0
18.5285 -85.4019 0
17.6777 -82.9698 0
19.3864 -87.6289 0
18.5285 -85.4019 0
17.3288 -87.3053 0
16.2512 -85.083 0
18.5285 -85.4019 0
17.6777 -82.9698 0
16.2512 -85.083 0
15.2038 -82.6566 0
19.652 -83.28 0
18.9837 -80.58 0
17.6777 -82.9698 0
16.8458 -80.3414 0
18.9837 -80.58 0
18.4003 -77.7783 0
16.8458 -80.3414 0
16.0507 -77.5097 0
17.6777 -82.9698 0
16.8458 -80.3414 0
15.2038 -82.6566 0
14.1786 -80.0369 0
16.8458 -80.3414 0
16.0507 -77.5097 0
14.1786 -80.0369 0
13.162 -77.208 0
12.7365 -77.6428 0
13.8103 -80.4249 0
15.5621 -77.9381 0
16.3229 -80.7415 0
13.8103 -80.4249 0
14.9465 -82.8511 0
16.3229 -80.7415 0
17.084 -83.1695 0
15.5621 -77.9381 0
16.3229 -80.7415 0
17.9053 -78.1418 0
18.3504 -80.9196 0
16.3229 -80.7415 0
17.084 -83.1695 0
18.3504 -80.9196 0
18.7554 -83.4042 0
14.9465 -82.8511 0
16.1143 -84.9203 0
17.084 -83.1695 0
17.9133 -85.2654 0
16.1143 -84.9203 0
17.35 -86.5921 0
17.9133 -85.2654 0
18.7323 -86.9436 0
17.084 -83.1695 0
17.9133 -85.2654 0
18.7554 -83.4042 0
19.2121 -85.4936 0
17.9133 -85.2654 0
18.7323 -86.9436 0
19.2121 -85.4936 0
19.695 -87.2399 0
17.9053 -78.1418 0
18.3504 -80.9196 0
20.0356 -78.2247 0
20.1406 -81.0024 0
18.3504 -80.9196 0
18.7554 -83.4042 0
20.1406 -81.0024 0
20.2668 -83.5224 0
20.0356 -78.2247 0
20.1406 -81.0024 0
22.1316 -78.1824 0
21.9604 -81.0128 0
20.1406 -81.0024 0
20.2668 -83.5224 0
21.9604 -81.0128 0
21.7892 -83.5277 0
18.7554 -83.4042 0
19.2121 -85.4936 0
20.2668 -83.5224 0
20.3713 -85.6821 0
19.2121 -85.4936 0
19.695 -87.2399 0
20.3713 -85.6821 0
20.5313 -87.5544 0
20.2668 -83.5224 0
20.3713 -85.6821 0
21.7892 -83.5277 0
21.6156 -85.7989 0
20.3713 -85.6821 0
20.5313 -87.5544 0
21.6156 -85.7989 0
21.5266 -87.7584 0
17.35 -86.5921 0
18.6009 -87.8495 0
18.7323 -86.9436 0
19.6185 -88.214 0
18.6009 -87.8495 0
19.8644 -88.7477 0
19.6185 -88.214 0
20.5538 -89.1197 0
18.7323 -86.9436 0
19.6185 -88.214 0
19.695 -87.2399 0
20.1574 -88.5622 0
19.6185 -88.214 0
20.5538 -89.1197 0
20.1574 -88.5622 0
20.809 -89.5737 0
19.8644 -88.7477 0
21.1478 -89.2965 0
20.5538 -89.1197 0
21.4968 -89.6725 0
21.1478 -89.2965 0
22.4425 -89.4813 0
21.4968 -89.6725 0
22.4425 -89.8587 0
20.5538 -89.1197 0
21.4968 -89.6725 0
20.809 -89.5737 0
21.5888 -90.2338 0
21.4968 -89.6725 0
22.4425 -89.8587 0
21.5888 -90.2338 0
22.4425 -90.4529 0
19.695 -87.2399 0
20.1574 -88.5622 0
20.5313 -87.5544 0
20.802 -88.9652 0
20.1574 -88.5622 0
20.809 -89.5737 0
20.802 -88.9652 0
21.2187 -90.146 0
20.5313 -87.5544 0
20.802 -88.9652 0
21.5266 -87.7584 0
21.5381 -89.3614 0
20.802 -88.9652 0
21.2187 -90.146 0
21.5381 -89.3614 0
21.6909 -90.6861 0
20.809 -89.5737 0
21.5888 -90.2338 0
21.2187 -90.146 0
21.7941 -90.8388 0
21.5888 -90.2338 0
22.4425 -90.4529 0
21.7941 -90.8388 0
22.4425 -91.0782 0
21.2187 -90.146 0
21.7941 -90.8388 0
21.6909 -90.6861 0
22.0212 -91.4339 0
21.7941 -90.8388 0
22.4425 -91.0782 0
22.0212 -91.4339 0
22.4425 -91.686 0
22.1316 -78.1824 0
21.9604 -81.0128 0
24.2634 -78.0241 0
23.8861 -80.8984 0
21.9604 -81.0128 0
21.7892 -83.5277 0
23.8861 -80.8984 0
23.4521 -83.4663 0
24.2634 -78.0241 0
23.8861 -80.8984 0
26.4847 -77.7783 0
25.9014 -80.58 0
23.8861 -80.8984 0
23.4521 -83.4663 0
25.9014 -80.58 0
25.2331 -83.28 0
21.7892 -83.5277 0
21.6156 -85.7989 0
23.4521 -83.4663 0
23.0437 -85.7747 0
21.6156 -85.7989 0
21.5266 -87.7584 0
23.0437 -85.7747 0
22.6361 -87.8396 0
23.4521 -83.4663 0
23.0437 -85.7747 0
25.2331 -83.28 0
24.5424 -85.6688 0
23.0437 -85.7747 0
22.6361 -87.8396 0
24.5424 -85.6688 0
23.9422 -87.7802 0
26.4847 -77.7783 0
25.9014 -80.58 0
28.8343 -77.5097 0
28.0393 -80.3414 0
25.9014 -80.58 0
25.2331 -83.28 0
28.0393 -80.3414 0
27.2074 -82.9698 0
28.8343 -77.5097 0
28.0393 -80.3414 0
31.7231 -77.208 0
30.7064 -80.0369 0
28.0393 -80.3414 0
27.2074 -82.9698 0
30.7064 -80.0369 0
29.6813 -82.6566 0
25.2331 -83.28 0
24.5424 -85.6688 0
27.2074 -82.9698 0
26.3566 -85.4019 0
24.5424 -85.6688 0
23.9422 -87.7802 0
26.3566 -85.4019 0
25.4986 -87.6289 0
27.2074 -82.9698 0
26.3566 -85.4019 0
29.6813 -82.6566 0
28.6339 -85.083 0
26.3566 -85.4019 0
25.4986 -87.6289 0
28.6339 -85.083 0
27.5563 -87.3053 0
21.5266 -87.7584 0
21.5381 -89.3614 0
22.6361 -87.8396 0
22.3713 -89.6317 0
21.5381 -89.3614 0
21.6909 -90.6861 0
22.3713 -89.6317 0
22.2033 -91.1716 0
22.6361 -87.8396 0
22.3713 -89.6317 0
23.9422 -87.7802 0
23.3743 -89.7234 0
22.3713 -89.6317 0
22.2033 -91.1716 0
23.3743 -89.7234 0
22.9503 -91.3722 0
21.6909 -90.6861 0
22.0212 -91.4339 0
22.2033 -91.1716 0
22.2742 -92.0045 0
22.0212 -91.4339 0
22.4425 -91.686 0
22.2742 -92.0045 0
22.4425 -92.3083 0
22.2033 -91.1716 0
22.2742 -92.0045 0
22.9503 -91.3722 0
22.6621 -92.5886 0
22.2742 -92.0045 0
22.4425 -92.3083 0
22.6621 -92.5886 0
22.4425 -92.8725 0
23.9422 -87.7802 0
23.3743 -89.7234 0
25.4986 -87.6289 0
24.6385 -89.6317 0
23.3743 -89.7234 0
22.9503 -91.3722 0
24.6385 -89.6317 0
23.8259 -91.3541 0
25.4986 -87.6289 0
24.6385 -89.6317 0
27.5563 -87.3053 0
26.4426 -89.3059 0
24.6385 -89.6317 0
23.8259 -91.3541 0
26.4426 -89.3059 0
25.2518 -91.0394 0
22.9503 -91.3722 0
22.6621 -92.5886 0
23.8259 -91.3541 0
23.0784 -92.7876 0
22.6621 -92.5886 0
22.4425 -92.8725 0
23.0784 -92.7876 0
22.4425 -93.4975 0
23.8259 -91.3541 0
23.0784 -92.7876 0
25.2518 -91.0394 0
23.9517 -92.6385 0
23.0784 -92.7876 0
22.4425 -93.4975 0
23.9517 -92.6385 0
22.4425 -93.4401 0
5.53127 -46.1323 0
6.32436 -50.836 0
10.2458 -46.3611 0
10.8268 -51.0708 0
6.32436 -50.836 0
7.14353 -55.3204 0
10.8268 -51.0708 0
11.4377 -55.5588 0
10.2458 -46.3611 0
10.8268 -51.0708 0
14.3237 -46.5474 0
14.7546 -51.225 0
10.8268 -51.0708 0
11.4377 -55.5588 0
14.7546 -51.225 0
15.176 -55.746 0
7.14353 -55.3204 0
7.9673 -59.6278 0
11.4377 -55.5588 0
12.0994 -59.8795 0
7.9673 -59.6278 0
8.84644 -63.7429 0
12.0994 -59.8795 0
12.7607 -64.0084 0
11.4377 -55.5588 0
12.0994 -59.8795 0
15.176 -55.746 0
15.6251 -60.0809 0
12.0994 -59.8795 0
12.7607 -64.0084 0
15.6251 -60.0809 0
16.0819 -64.1478 0
14.3237 -46.5474 0
14.7546 -51.225 0
18.3127 -46.6 0
18.5248 -51.3652 0
14.7546 -51.225 0
15.176 -55.746 0
18.5248 -51.3652 0
18.7639 -55.8709 0
18.3127 -46.6 0
18.5248 -51.3652 0
22.169 -46.6613 0