# vtk DataFile Version 3.0
#This file was generated by the deal.II library on 2020/9/2 at 8:41:08
ASCII
DATASET UNSTRUCTURED_GRID

POINTS 1536 double
5 0 0
5.125 0 0
5 0.125 0
5.125 0.125 0
5.125 0 0
5.25 0 0
5.125 0.125 0
5.25 0.125 0
5 0.125 0
5.125 0.125 0
5 0.25 0
5.125 0.25 0
5.125 0.125 0
5.25 0.125 0
5.125 0.25 0
5.25 0.25 0
5.25 0 0
5.375 0 0
5.25 0.125 0
5.375 0.125 0
5.375 0 0
5.5 0 0
5.375 0.125 0
5.5 0.125 0
5.25 0.125 0
5.375 0.125 0
5.25 0.25 0
5.375 0.25 0
5.375 0.125 0
5.5 0.125 0
5.375 0.25 0
5.5 0.25 0
5 0.25 0
5.125 0.25 0
5 0.375 0
5.125 0.375 0
5.125 0.25 0
5.25 0.25 0
5.125 0.375 0
5.25 0.375 0
5 0.375 0
5.125 0.375 0
5 0.5 0
5.125 0.5 0
5.125 0.375 0
5.25 0.375 0
5.125 0.5 0
5.25 0.5 0
5.25 0.25 0
5.375 0.25 0
5.25 0.375 0
5.375 0.375 0
5.375 0.25 0
5.5 0.25 0
5.375 0.375 0
5.5 0.375 0
5.25 0.375 0
5.375 0.375 0
5.25 0.5 0
5.375 0.5 0
5.375 0.375 0
5.5 0.375 0
5.375 0.5 0
5.5 0.5 0
5.5 0 0
5.625 0 0
5.5 0.125 0
5.625 0.125 0
5.625 0 0
5.75 0 0
5.625 0.125 0
5.75 0.125 0
5.5 0.125 0
5.625 0.125 0
5.5 0.25 0
5.625 0.25 0
5.625 0.125 0
5.75 0.125 0
5.625 0.25 0
5.75 0.25 0
5.75 0 0
5.875 0 0
5.75 0.125 0
5.875 0.125 0
5.875 0 0
6 0 0
5.875 0.125 0
6 0.125 0
5.75 0.125 0
5.875 0.125 0
5.75 0.25 0
5.875 0.25 0
5.875 0.125 0
6 0.125 0
5.875 0.25 0
6 0.25 0
5.5 0.25 0
5.625 0.25 0
5.5 0.375 0
5.625 0.375 0
5.625 0.25 0
5.75 0.25 0
5.625 0.375 0
5.75 0.375 0
5.5 0.375 0
5.625 0.375 0
5.5 0.5 0
5.625 0.5 0
5.625 0.375 0
5.75 0.375 0
5.625 0.5 0
5.75 0.5 0
5.75 0.25 0
5.875 0.25 0
5.75 0.375 0
5.875 0.375 0
5.875 0.25 0
6 0.25 0
5.875 0.375 0
6 0.375 0
5.75 0.375 0
5.875 0.375 0
5.75 0.5 0
5.875 0.5 0
5.875 0.375 0
6 0.375 0
5.875 0.5 0
6 0.5 0
5 0.5 0
5.125 0.5 0
5 0.625 0
5.125 0.625 0
5.125 0.5 0
5.25 0.5 0
5.125 0.625 0
5.25 0.625 0
5 0.625 0
5.125 0.625 0
5 0.75 0
5.125 0.75 0
5.125 0.625 0
5.25 0.625 0
5.125 0.75 0
5.25 0.75 0
5.25 0.5 0
5.375 0.5 0
5.25 0.625 0
5.375 0.625 0
5.375 0.5 0
5.5 0.5 0
5.375 0.625 0
5.5 0.625 0
5.25 0.625 0
5.375 0.625 0
5.25 0.75 0
5.375 0.75 0
5.375 0.625 0
5.5 0.625 0
5.375 0.75 0
5.5 0.75 0
5 0.75 0
5.125 0.75 0
5 0.875 0
5.125 0.875 0
5.125 0.75 0
5.25 0.75 0
5.125 0.875 0
5.25 0.875 0
5 0.875 0
5.125 0.875 0
5 1 0
5.125 1 0
5.125 0.875 0
5.25 0.875 0
5.125 1 0
5.25 1 0
5.25 0.75 0
5.375 0.75 0
5.25 0.875 0
5.375 0.875 0
5.375 0.75 0
5.5 0.75 0
5.375 0.875 0
5.5 0.875 0
5.25 0.875 0
5.375 0.875 0
5.25 1 0
5.375 1 0
5.375 0.875 0
5.5 0.875 0
5.375 1 0
5.5 1 0
5.5 0.5 0
5.625 0.5 0
5.5 0.625 0
5.625 0.625 0
5.625 0.5 0
5.75 0.5 0
5.625 0.625 0
5.75 0.625 0
5.5 0.625 0
5.625 0.625 0
5.5 0.75 0
5.625 0.75 0
5.625 0.625 0
5.75 0.625 0
5.625 0.75 0
5.75 0.75 0
5.75 0.5 0
5.875 0.5 0
5.75 0.625 0
5.875 0.625 0
5.875 0.5 0
6 0.5 0
5.875 0.625 0
6 0.625 0
5.75 0.625 0
5.875 0.625 0
5.75 0.75 0
5.875 0.75 0
5.875 0.625 0
6 0.625 0
5.875 0.75 0
6 0.75 0
5.5 0.75 0
5.625 0.75 0
5.5 0.875 0
5.625 0.875 0
5.625 0.75 0
5.75 0.75 0
5.625 0.875 0
5.75 0.875 0
5.5 0.875 0
5.625 0.875 0
5.5 1 0
5.625 1 0
5.625 0.875 0
5.75 0.875 0
5.625 1 0
5.75 1 0
5.75 0.75 0
5.875 0.75 0
5.75 0.875 0
5.875 0.875 0
5.875 0.75 0
6 0.75 0
5.875 0.875 0
6 0.875 0
5.75 0.875 0
5.875 0.875 0
5.75 1 0
5.875 1 0
5.875 0.875 0
6 0.875 0
5.875 1 0
6 1 0
4 0 0
4.125 0 0
4 0.125 0
4.125 0.125 0
4.125 0 0
4.25 0 0
4.125 0.125 0
4.25 0.125 0
4 0.125 0
4.125 0.125 0
4 0.25 0
4.125 0.25 0
4.125 0.125 0
4.25 0.125 0
4.125 0.25 0
4.25 0.25 0
4.25 0 0
4.375 0 0
4.25 0.125 0
4.375 0.125 0
4.375 0 0
4.5 0 0
4.375 0.125 0
4.5 0.125 0
4.25 0.125 0
4.375 0.125 0
4.25 0.25 0
4.375 0.25 0
4.375 0.125 0
4.5 0.125 0
4.375 0.25 0
4.5 0.25 0
4 0.25 0
4.125 0.25 0
4 0.375 0
4.125 0.375 0
4.125 0.25 0
4.25 0.25 0
4.125 0.375 0
4.25 0.375 0
4 0.375 0
4.125 0.375 0
4 0.5 0
4.125 0.5 0
4.125 0.375 0
4.25 0.375 0
4.125 0.5 0
4.25 0.5 0
4.25 0.25 0
4.375 0.25 0
4.25 0.375 0
4.375 0.375 0
4.375 0.25 0
4.5 0.25 0
4.375 0.375 0
4.5 0.375 0
4.25 0.375 0
4.375 0.375 0
4.25 0.5 0
4.375 0.5 0
4.375 0.375 0
4.5 0.375 0
4.375 0.5 0
4.5 0.5 0
4.5 0 0
4.625 0 0
4.5 0.125 0
4.625 0.125 0
4.625 0 0
4.75 0 0
4.625 0.125 0
4.75 0.125 0
4.5 0.125 0
4.625 0.125 0
4.5 0.25 0
4.625 0.25 0
4.625 0.125 0
4.75 0.125 0
4.625 0.25 0
4.75 0.25 0
4.75 0 0
4.875 0 0
4.75 0.125 0
4.875 0.125 0
4.875 0 0
5 0 0
4.875 0.125 0
5 0.125 0
4.75 0.125 0
4.875 0.125 0
4.75 0.25 0
4.875 0.25 0
4.875 0.125 0
5 0.125 0
4.875 0.25 0
5 0.25 0
4.5 0.25 0
4.625 0.25 0
4.5 0.375 0
4.625 0.375 0
4.625 0.25 0
4.75 0.25 0
4.625 0.375 0
4.75 0.375 0
4.5 0.375 0
4.625 0.375 0
4.5 0.5 0
4.625 0.5 0
4.625 0.375 0
4.75 0.375 0
4.625 0.5 0
4.75 0.5 0
4.75 0.25 0
4.875 0.25 0
4.75 0.375 0
4.875 0.375 0
4.875 0.25 0
5 0.25 0
4.875 0.375 0
5 0.375 0
4.75 0.375 0
4.875 0.375 0
4.75 0.5 0
4.875 0.5 0
4.875 0.375 0
5 0.375 0
4.875 0.5 0
5 0.5 0
4 0.5 0
4.125 0.5 0
4 0.625 0
4.125 0.625 0
4.125 0.5 0
4.25 0.5 0
4.125 0.625 0
4.25 0.625 0
4 0.625 0
4.125 0.625 0
4 0.75 0
4.125 0.75 0
4.125 0.625 0
4.25 0.625 0
4.125 0.75 0
4.25 0.75 0
4.25 0.5 0
4.375 0.5 0
4.25 0.625 0
4.375 0.625 0
4.375 0.5 0
4.5 0.5 0
4.375 0.625 0
4.5 0.625 0
4.25 0.625 0
4.375 0.625 0
4.25 0.75 0
4.375 0.75 0
4.375 0.625 0
4.5 0.625 0
4.375 0.75 0
4.5 0.75 0
4 0.75 0
4.125 0.75 0
4 0.875 0
4.125 0.875 0
4.125 0.75 0
4.25 0.75 0
4.125 0.875 0
4.25 0.875 0
4 0.875 0
4.125 0.875 0
4 1 0
4.125 1 0
4.125 0.875 0
4.25 0.875 0
4.125 1 0
4.25 1 0
4.25 0.75 0
4.375 0.75 0
4.25 0.875 0
4.375 0.875 0
4.375 0.75 0
4.5 0.75 0
4.375 0.875 0
4.5 0.875 0
4.25 0.875 0
4.375 0.875 0
4.25 1 0
4.375 1 0
4.375 0.875 0
4.5 0.875 0
4.375 1 0
4.5 1 0
4.5 0.5 0
4.625 0.5 0
4.5 0.625 0
4.625 0.625 0
4.625 0.5 0
4.75 0.5 0
4.625 0.625 0
4.75 0.625 0
4.5 0.625 0
4.625 0.625 0
4.5 0.75 0
4.625 0.75 0
4.625 0.625 0
4.75 0.625 0
4.625 0.75 0
4.75 0.75 0
4.75 0.5 0
4.875 0.5 0
4.75 0.625 0
4.875 0.625 0
4.875 0.5 0
5 0.5 0
4.875 0.625 0
5 0.625 0
4.75 0.625 0
4.875 0.625 0
4.75 0.75 0
4.875 0.75 0
4.875 0.625 0
5 0.625 0
4.875 0.75 0
5 0.75 0
4.5 0.75 0
4.625 0.75 0
4.5 0.875 0
4.625 0.875 0
4.625 0.75 0
4.75 0.75 0
4.625 0.875 0
4.75 0.875 0
4.5 0.875 0
4.625 0.875 0
4.5 1 0
4.625 1 0
4.625 0.875 0
4.75 0.875 0
4.625 1 0
4.75 1 0
4.75 0.75 0
4.875 0.75 0
4.75 0.875 0
4.875 0.875 0
4.875 0.75 0
5 0.75 0
4.875 0.875 0
5 0.875 0
4.75 0.875 0
4.875 0.875 0
4.75 1 0
4.875 1 0
4.875 0.875 0
5 0.875 0
4.875 1 0
5 1 0
3 0 0
3.125 0 0
3 0.125 0
3.125 0.125 0
3.125 0 0
3.25 0 0
3.125 0.125 0
3.25 0.125 0
3 0.125 0
3.125 0.125 0
3 0.25 0
3.125 0.25 0
3.125 0.125 0
3.25 0.125 0
3.125 0.25 0
3.25 0.25 0
3.25 0 0
3.375 0 0
3.25 0.125 0
3.375 0.125 0
3.375 0 0
3.5 0 0
3.375 0.125 0
3.5 0.125 0
3.25 0.125 0
3.375 0.125 0
3.25 0.25 0
3.375 0.25 0
3.375 0.125 0
3.5 0.125 0
3.375 0.25 0
3.5 0.25 0
3 0.25 0
3.125 0.25 0
3 0.375 0
3.125 0.375 0
3.125 0.25 0
3.25 0.25 0
3.125 0.375 0
3.25 0.375 0
3 0.375 0
3.125 0.375 0
3 0.5 0
3.125 0.5 0
3.125 0.375 0
3.25 0.375 0
3.125 0.5 0
3.25 0.5 0
3.25 0.25 0
3.375 0.25 0
3.25 0.375 0
3.375 0.375 0
3.375 0.25 0
3.5 0.25 0
3.375 0.375 0
3.5 0.375 0
3.25 0.375 0
3.375 0.375 0
3.25 0.5 0
3.375 0.5 0
3.375 0.375 0
3.5 0.375 0
3.375 0.5 0
3.5 0.5 0
3.5 0 0
3.625 0 0
3.5 0.125 0
3.625 0.125 0
3.625 0 0
3.75 0 0
3.625 0.125 0
3.75 0.125 0
3.5 0.125 0
3.625 0.125 0
3.5 0.25 0
3.625 0.25 0
3.625 0.125 0
3.75 0.125 0
3.625 0.25 0
3.75 0.25 0
3.75 0 0
3.875 0 0
3.75 0.125 0
3.875 0.125 0
3.875 0 0
4 0 0
3.875 0.125 0
4 0.125 0
3.75 0.125 0
3.875 0.125 0
3.75 0.25 0
3.875 0.25 0
3.875 0.125 0
4 0.125 0
3.875 0.25 0
4 0.25 0
3.5 0.25 0
3.625 0.25 0
3.5 0.375 0
3.625 0.375 0
3.625 0.25 0
3.75 0.25 0
3.625 0.375 0
3.75 0.375 0
3.5 0.375 0
3.625 0.375 0
3.5 0.5 0
3.625 0.5 0
3.625 0.375 0
3.75 0.375 0
3.625 0.5 0
3.75 0.5 0
3.75 0.25 0
3.875 0.25 0
3.75 0.375 0
3.875 0.375 0
3.875 0.25 0
4 0.25 0
3.875 0.375 0
4 0.375 0
3.75 0.375 0
3.875 0.375 0
3.75 0.5 0
3.875 0.5 0
3.875 0.375 0
4 0.375 0
3.875 0.5 0
4 0.5 0
3 0.5 0
3.125 0.5 0
3 0.625 0
3.125 0.625 0
3.125 0.5 0
3.25 0.5 0
3.125 0.625 0
3.25 0.625 0
3 0.625 0
3.125 0.625 0
3 0.75 0
3.125 0.75 0
3.125 0.625 0
3.25 0.625 0
3.125 0.75 0
3.25 0.75 0
3.25 0.5 0
3.375 0.5 0
3.25 0.625 0
3.375 0.625 0
3.375 0.5 0
3.5 0.5 0
3.375 0.625 0
3.5 0.625 0
3.25 0.625 0
3.375 0.625 0
3.25 0.75 0
3.375 0.75 0
3.375 0.625 0
3.5 0.625 0
3.375 0.75 0
3.5 0.75 0
3 0.75 0
3.125 0.75 0
3 0.875 0
3.125 0.875 0
3.125 0.75 0
3.25 0.75 0
3.125 0.875 0
3.25 0.875 0
3 0.875 0
3.125 0.875 0
3 1 0
3.125 1 0
3.125 0.875 0
3.25 0.875 0
3.125 1 0
3.25 1 0
3.25 0.75 0
3.375 0.75 0
3.25 0.875 0
3.375 0.875 0
3.375 0.75 0
3.5 0.75 0
3.375 0.875 0
3.5 0.875 0
3.25 0.875 0
3.375 0.875 0
3.25 1 0
3.375 1 0
3.375 0.875 0
3.5 0.875 0
3.375 1 0
3.5 1 0
3.5 0.5 0
3.625 0.5 0
3.5 0.625 0
3.625 0.625 0
3.625 0.5 0
3.75 0.5 0
3.625 0.625 0
3.75 0.625 0
3.5 0.625 0
3.625 0.625 0
3.5 0.75 0
3.625 0.75 0
3.625 0.625 0
3.75 0.625 0
3.625 0.75 0
3.75 0.75 0
3.75 0.5 0
3.875 0.5 0
3.75 0.625 0
3.875 0.625 0
3.875 0.5 0
4 0.5 0
3.875 0.625 0
4 0.625 0
3.75 0.625 0
3.875 0.625 0
3.75 0.75 0
3.875 0.75 0
3.875 0.625 0
4 0.625 0
3.875 0.75 0
4 0.75 0
3.5 0.75 0
3.625 0.75 0
3.5 0.875 0
3.625 0.875 0
3.625 0.75 0
3.75 0.75 0
3.625 0.875 0
3.75 0.875 0
3.5 0.875 0
3.625 0.875 0
3.5 1 0
3.625 1 0
3.625 0.875 0
3.75 0.875 0
3.625 1 0
3.75 1 0
3.75 0.75 0
3.875 0.75 0
3.75 0.875 0
3.875 0.875 0
3.875 0.75 0
4 0.75 0
3.875 0.875 0
4 0.875 0
3.75 0.875 0
3.875 0.875 0
3.75 1 0
3.875 1 0
3.875 0.875 0
4 0.875 0
3.875 1 0
4 1 0
2 0 0
2.125 0 0
2 0.125 0
2.125 0.125 0
2.125 0 0
2.25 0 0
2.125 0.125 0
2.25 0.125 0
2 0.125 0
2.125 0.125 0
2 0.25 0
2.125 0.25 0
2.125 0.125 0
2.25 0.125 0
2.125 0.25 0
2.25 0.25 0
2.25 0 0
2.375 0 0
2.25 0.125 0
2.375 0.125 0
2.375 0 0
2.5 0 0
2.375 0.125 0
2.5 0.125 0
2.25 0.125 0
2.375 0.125 0
2.25 0.25 0
2.375 0.25 0
2.375 0.125 0
2.5 0.125 0
2.375 0.25 0
2.5 0.25 0
2 0.25 0
2.125 0.25 0
2 0.375 0
2.125 0.375 0
2.125 0.25 0
2.25 0.25 0
2.125 0.375 0
2.25 0.375 0
2 0.375 0
2.125 0.375 0
2 0.5 0
2.125 0.5 0
2.125 0.375 0
2.25 0.375 0
2.125 0.5 0
2.25 0.5 0
2.25 0.25 0
2.375 0.25 0
2.25 0.375 0
2.375 0.375 0
2.375 0.25 0
[...]
POINT_DATA 1536
VECTORS displacements double
39.0215 -45.7554 0
39.7591 -40.9179 0
34.3711 -45.9793 0
34.9421 -41.1252 0
39.7591 -40.9179 0
40.4865 -35.9003 0
34.9421 -41.1252 0
35.4687 -36.1102 0
34.3711 -45.9793 0
34.9421 -41.1252 0
30.2889 -46.1498 0
30.6534 -41.2702 0
34.9421 -41.1252 0
35.4687 -36.1102 0
30.6534 -41.2702 0
31.0065 -36.2372 0
40.4865 -35.9003 0
41.1687 -30.702 0
35.4687 -36.1102 0
35.993 -30.8875 0
41.1687 -30.702 0
41.86 -25.3291 0
35.993 -30.8875 0
36.4693 -25.5287 0
35.4687 -36.1102 0
35.993 -30.8875 0
31.0065 -36.2372 0
31.3363 -31.0116 0
35.993 -30.8875 0
36.4693 -25.5287 0
31.3363 -31.0116 0
31.6281 -25.6158 0
30.2889 -46.1498 0
30.6534 -41.2702 0
26.343 -46.2206 0
26.5492 -41.3702 0
30.6534 -41.2702 0
31.0065 -36.2372 0
26.5492 -41.3702 0
26.6946 -36.2955 0
26.343 -46.2206 0
26.5492 -41.3702 0
22.4962 -46.2517 0
22.4923 -41.3508 0
26.5492 -41.3702 0
26.6946 -36.2955 0
22.4923 -41.3508 0
22.497 -36.3071 0
31.0065 -36.2372 0
31.3363 -31.0116 0
26.6946 -36.2955 0
26.833 -31.0458 0
31.3363 -31.0116 0
31.6281 -25.6158 0
26.833 -31.0458 0
26.9561 -25.6289 0
26.6946 -36.2955 0
26.833 -31.0458 0
22.497 -36.3071 0
22.4303 -31.0048 0
26.833 -31.0458 0
26.9561 -25.6289 0
22.4303 -31.0048 0
22.3888 -25.5812 0
41.86 -25.3291 0
42.5157 -19.7827 0
36.4693 -25.5287 0
36.9482 -19.9392 0
42.5157 -19.7827 0
43.2749 -13.9822 0
36.9482 -19.9392 0
37.3123 -14.2083 0
36.4693 -25.5287 0
36.9482 -19.9392 0
31.6281 -25.6158 0
31.8973 -20.0165 0
36.9482 -19.9392 0
37.3123 -14.2083 0
31.8973 -20.0165 0
32.0903 -14.2259 0
43.2749 -13.9822 0
44.0992 -7.89107 0
37.3123 -14.2083 0
37.5166 -7.80496 0
44.0992 -7.89107 0
44.5323 0 0
37.5166 -7.80496 0
37.7192 -1.42363 0
37.3123 -14.2083 0
37.5166 -7.80496 0
32.0903 -14.2259 0
32.0993 -8.10316 0
37.5166 -7.80496 0
37.7192 -1.42363 0
32.0993 -8.10316 0
32.2309 -2.35052 0
31.6281 -25.6158 0
31.8973 -20.0165 0
26.9561 -25.6289 0
27.0396 -20.0436 0
31.8973 -20.0165 0
32.0903 -14.2259 0
27.0396 -20.0436 0
26.9977 -14.2946 0
26.9561 -25.6289 0
27.0396 -20.0436 0
22.3888 -25.5812 0
22.2815 -20.0753 0
27.0396 -20.0436 0
26.9977 -14.2946 0
22.2815 -20.0753 0
22.1482 -14.4872 0
32.0903 -14.2259 0
32.0993 -8.10316 0
26.9977 -14.2946 0
26.9924 -8.55718 0
32.0993 -8.10316 0
32.2309 -2.35052 0
26.9924 -8.55718 0
27.0507 -2.93136 0
26.9977 -14.2946 0
26.9924 -8.55718 0
22.1482 -14.4872 0
22.0831 -8.8909 0
26.9924 -8.55718 0
27.0507 -2.93136 0
22.0831 -8.8909 0
22.1582 -3.54772 0
22.4962 -46.2517 0
22.4923 -41.3508 0
18.6345 -46.1832 0
18.4485 -41.3039 0
22.4923 -41.3508 0
22.497 -36.3071 0
18.4485 -41.3039 0
18.2306 -36.1793 0
18.6345 -46.1832 0
18.4485 -41.3039 0
14.6685 -46.0291 0
14.3095 -41.1487 0
18.4485 -41.3039 0
18.2306 -36.1793 0
14.3095 -41.1487 0
13.9283 -36.072 0
22.497 -36.3071 0
22.4303 -31.0048 0
18.2306 -36.1793 0
18.0547 -30.934 0
22.4303 -31.0048 0
22.3888 -25.5812 0
18.0547 -30.934 0
17.8206 -25.5713 0
18.2306 -36.1793 0
18.0547 -30.934 0
13.9283 -36.072 0
13.5244 -30.8635 0
18.0547 -30.934 0
17.8206 -25.5713 0
13.5244 -30.8635 0
13.1664 -25.544 0
14.6685 -46.0291 0
14.3095 -41.1487 0
10.4907 -45.8268 0
9.9012 -40.967 0
14.3095 -41.1487 0
13.9283 -36.072 0
9.9012 -40.967 0
9.3469 -35.9463 0
10.4907 -45.8268 0
9.9012 -40.967 0
5.91715 -45.6026 0
5.25129 -40.7577 0
9.9012 -40.967 0
9.3469 -35.9463 0
5.25129 -40.7577 0
4.72237 -35.8386 0
13.9283 -36.072 0
13.5244 -30.8635 0
9.3469 -35.9463 0
8.90435 -30.7734 0
13.5244 -30.8635 0
13.1664 -25.544 0
8.90435 -30.7734 0
8.56397 -25.5509 0
9.3469 -35.9463 0
8.90435 -30.7734 0
4.72237 -35.8386 0
4.18641 -30.7114 0
8.90435 -30.7734 0
8.56397 -25.5509 0
4.18641 -30.7114 0
3.62319 -25.4375 0
22.3888 -25.5812 0
22.2815 -20.0753 0
17.8206 -25.5713 0
17.5697 -20.1281 0
22.2815 -20.0753 0
22.1482 -14.4872 0
17.5697 -20.1281 0
17.4205 -14.657 0
17.8206 -25.5713 0
17.5697 -20.1281 0
13.1664 -25.544 0
12.9385 -20.1932 0
17.5697 -20.1281 0
17.4205 -14.657 0
12.9385 -20.1932 0
12.7453 -14.7723 0
22.1482 -14.4872 0
22.0831 -8.8909 0
17.4205 -14.657 0
17.3504 -9.19118 0
22.0831 -8.8909 0
22.1582 -3.54772 0
17.3504 -9.19118 0
17.4188 -4.05945 0
17.4205 -14.657 0
17.3504 -9.19118 0
12.7453 -14.7723 0
12.663 -9.41683 0
17.3504 -9.19118 0
17.4188 -4.05945 0
12.663 -9.41683 0
12.69 -4.36731 0
13.1664 -25.544 0
12.9385 -20.1932 0
8.56397 -25.5509 0
8.22382 -20.1889 0
12.9385 -20.1932 0
12.7453 -14.7723 0
8.22382 -20.1889 0
7.97785 -14.8042 0
8.56397 -25.5509 0
8.22382 -20.1889 0
3.62319 -25.4375 0
3.18572 -20.1017 0
8.22382 -20.1889 0
7.97785 -14.8042 0
3.18572 -20.1017 0
2.91751 -14.767 0
12.7453 -14.7723 0
12.663 -9.41683 0
7.97785 -14.8042 0
7.85703 -9.52568 0
12.663 -9.41683 0
12.69 -4.36731 0
7.85703 -9.52568 0
7.83639 -4.46694 0
7.97785 -14.8042 0
7.85703 -9.52568 0
2.91751 -14.767 0
2.82758 -9.54328 0
7.85703 -9.52568 0
7.83639 -4.46694 0
2.82758 -9.54328 0
2.82164 -4.4735 0
31.8647 -76.8687 0
32.8863 -73.8188 0
29.066 -77.1661 0
29.8053 -74.1069 0
32.8863 -73.8188 0
33.8611 -70.5001 0
29.8053 -74.1069 0
30.5283 -70.7755 0
29.066 -77.1661 0
29.8053 -74.1069 0
26.7272 -77.3625 0
27.1718 -74.2966 0
29.8053 -74.1069 0
30.5283 -70.7755 0
27.1718 -74.2966 0
27.6287 -70.9558 0
33.8611 -70.5001 0
34.802 -66.9398 0
30.5283 -70.7755 0
31.2248 -67.2024 0
34.802 -66.9398 0
35.7197 -63.142 0
31.2248 -67.2024 0
31.8859 -63.4022 0
30.5283 -70.7755 0
31.2248 -67.2024 0
27.6287 -70.9558 0
28.0952 -67.3662 0
31.2248 -67.2024 0
31.8859 -63.4022 0
28.0952 -67.3662 0
28.5615 -63.5555 0
26.7272 -77.3625 0
27.1718 -74.2966 0
24.6061 -77.4506 0
24.7703 -74.3795 0
27.1718 -74.2966 0
27.6287 -70.9558 0
24.7703 -74.3795 0
24.9588 -71.0337 0
24.6061 -77.4506 0
24.7703 -74.3795 0
22.5416 -77.4268 0
22.4432 -74.3506 0
24.7703 -74.3795 0
24.9588 -71.0337 0
22.4432 -74.3506 0
22.3908 -71.0114 0
27.6287 -70.9558 0
28.0952 -67.3662 0
24.9588 -71.0337 0
25.1746 -67.4436 0
28.0952 -67.3662 0
28.5615 -63.5555 0
25.1746 -67.4436 0
25.4073 -63.6306 0
24.9588 -71.0337 0
25.1746 -67.4436 0
22.3908 -71.0114 0
22.3707 -67.432 0
25.1746 -67.4436 0
25.4073 -63.6306 0
22.3707 -67.432 0
22.3736 -63.6218 0
35.7197 -63.142 0
36.5951 -59.104 0
31.8859 -63.4022 0
32.54 -59.354 0
36.5951 -59.104 0
37.4308 -54.855 0
32.54 -59.354 0
33.1797 -55.0943 0
31.8859 -63.4022 0
32.54 -59.354 0
28.5615 -63.5555 0
29.012 -59.5319 0
32.54 -59.354 0
33.1797 -55.0943 0
29.012 -59.5319 0
29.4518 -55.2697 0
37.4308 -54.855 0
38.2414 -50.4079 0
33.1797 -55.0943 0
33.788 -50.6397 0
38.2414 -50.4079 0
39.0215 -45.7554 0
33.788 -50.6397 0
34.3711 -45.9793 0
33.1797 -55.0943 0
33.788 -50.6397 0
29.4518 -55.2697 0
29.874 -50.7998 0
33.788 -50.6397 0
34.3711 -45.9793 0
29.874 -50.7998 0
30.2889 -46.1498 0
28.5615 -63.5555 0
29.012 -59.5319 0
25.4073 -63.6306 0
25.6546 -59.6043 0
29.012 -59.5319 0
29.4518 -55.2697 0
25.6546 -59.6043 0
25.9029 -55.3705 0
25.4073 -63.6306 0
25.6546 -59.6043 0
22.3736 -63.6218 0
22.3862 -59.5994 0
25.6546 -59.6043 0
25.9029 -55.3705 0
22.3862 -59.5994 0
22.4222 -55.3673 0
29.4518 -55.2697 0
29.874 -50.7998 0
25.9029 -55.3705 0
26.1356 -50.9094 0
29.874 -50.7998 0
30.2889 -46.1498 0
26.1356 -50.9094 0
26.343 -46.2206 0
25.9029 -55.3705 0
26.1356 -50.9094 0
22.4222 -55.3673 0
22.4696 -50.9239 0
26.1356 -50.9094 0
26.343 -46.2206 0
22.4696 -50.9239 0
22.4962 -46.2517 0
22.5416 -77.4268 0
22.4432 -74.3506 0
20.4417 -77.2949 0
20.1144 -74.219 0
22.4432 -74.3506 0
22.3908 -71.0114 0
20.1144 -74.219 0
19.8341 -70.9037 0
20.4417 -77.2949 0
20.1144 -74.219 0
18.2594 -77.0724 0
17.7219 -74.0234 0
20.1144 -74.219 0
19.8341 -70.9037 0
17.7219 -74.0234 0
17.2125 -70.7269 0
22.3908 -71.0114 0
22.3707 -67.432 0
19.8341 -70.9037 0
19.5883 -67.3412 0
22.3707 -67.432 0
22.3736 -63.6218 0
19.5883 -67.3412 0
19.3623 -63.547 0
19.8341 -70.9037 0
19.5883 -67.3412 0
17.2125 -70.7269 0
16.7328 -67.189 0
19.5883 -67.3412 0
19.3623 -63.547 0
16.7328 -67.189 0
16.2806 -63.4056 0
18.2594 -77.0724 0
17.7219 -74.0234 0
15.8839 -76.8218 0
15.1179 -73.7827 0
17.7219 -74.0234 0
17.2125 -70.7269 0
15.1179 -73.7827 0
14.382 -70.5029 0
15.8839 -76.8218 0
15.1179 -73.7827 0
13.0298 -76.5235 0
12.0361 -73.4926 0
15.1179 -73.7827 0
14.382 -70.5029 0
12.0361 -73.4926 0
11.0637 -70.2213 0
17.2125 -70.7269 0
16.7328 -67.189 0
14.382 -70.5029 0
13.6721 -66.9768 0
16.7328 -67.189 0
16.2806 -63.4056 0
13.6721 -66.9768 0
12.9895 -63.2082 0
14.382 -70.5029 0
13.6721 -66.9768 0
11.0637 -70.2213 0
10.1185 -66.705 0
13.6721 -66.9768 0
12.9895 -63.2082 0
10.1185 -66.705 0
9.20286 -62.9459 0
22.3736 -63.6218 0
22.3862 -59.5994 0
19.3623 -63.547 0
19.1585 -59.524 0
22.3862 -59.5994 0
22.4222 -55.3673 0
19.1585 -59.524 0
18.9616 -55.2889 0
19.3623 -63.547 0
19.1585 -59.524 0
16.2806 -63.4056 0
15.8466 -59.3918 0
19.1585 -59.524 0
18.9616 -55.2889 0
15.8466 -59.3918 0
15.436 -55.1512 0
22.4222 -55.3673 0
22.4696 -50.9239 0
18.9616 -55.2889 0
18.7895 -50.8443 0
22.4696 -50.9239 0
22.4962 -46.2517 0
18.7895 -50.8443 0
18.6345 -46.1832 0
18.9616 -55.2889 0
18.7895 -50.8443 0
15.436 -55.1512 0
15.0413 -50.6927 0
18.7895 -50.8443 0
18.6345 -46.1832 0
15.0413 -50.6927 0
14.6685 -46.0291 0
16.2806 -63.4056 0
15.8466 -59.3918 0
12.9895 -63.2082 0
12.3329 -59.2001 0
15.8466 -59.3918 0
15.436 -55.1512 0
12.3329 -59.2001 0
11.6981 -54.9599 0
12.9895 -63.2082 0
12.3329 -59.2001 0
9.20286 -62.9459 0
8.3197 -58.9472 0
12.3329 -59.2001 0
11.6981 -54.9599 0
8.3197 -58.9472 0
7.47432 -54.7173 0
15.436 -55.1512 0
15.0413 -50.6927 0
11.6981 -54.9599 0
11.0874 -50.4996 0
15.0413 -50.6927 0
14.6685 -46.0291 0
11.0874 -50.4996 0
10.4907 -45.8268 0
11.6981 -54.9599 0
11.0874 -50.4996 0
7.47432 -54.7173 0
6.66848 -50.2654 0
11.0874 -50.4996 0
10.4907 -45.8268 0
6.66848 -50.2654 0
5.91715 -45.6026 0
22.2661 -88.8016 0
23.5525 -88.6058 0
22.2661 -89.1736 0
23.184 -88.9762 0
23.5525 -88.6058 0
24.8264 -88.0246 0
23.184 -88.9762 0
24.099 -88.3903 0
22.2661 -89.1736 0
23.184 -88.9762 0
22.2661 -89.6836 0
23.043 -89.4585 0
23.184 -88.9762 0
24.099 -88.3903 0
23.043 -89.4585 0
23.7571 -88.7906 0
24.8264 -88.0246 0
26.0782 -87.0738 0
24.099 -88.3903 0
25.0054 -87.4319 0
26.0782 -87.0738 0
27.3068 -85.7625 0
25.0054 -87.4319 0
25.8843 -86.11 0
24.099 -88.3903 0
25.0054 -87.4319 0
23.7571 -88.7906 0
24.3687 -87.7583 0
25.0054 -87.4319 0
25.8843 -86.11 0
24.3687 -87.7583 0
24.8809 -86.3919 0
22.2661 -89.6836 0
23.043 -89.4585 0
22.2661 -90.2482 0
22.8465 -90.0034 0
23.043 -89.4585 0
23.7571 -88.7906 0
22.8465 -90.0034 0
23.3579 -89.2965 0
22.2661 -90.2482 0
22.8465 -90.0034 0
22.2661 -90.8001 0
22.6323 -90.5402 0
22.8465 -90.0034 0
23.3579 -89.2965 0
22.6323 -90.5402 0
22.9125 -89.7706 0
23.7571 -88.7906 0
24.3687 -87.7583 0
23.3579 -89.2965 0
23.7359 -88.1427 0
24.3687 -87.7583 0
24.8809 -86.3919 0
23.7359 -88.1427 0
24.011 -86.6852 0
23.3579 -89.2965 0
23.7359 -88.1427 0
22.9125 -89.7706 0
23.0444 -88.5033 0
23.7359 -88.1427 0
24.011 -86.6852 0
23.0444 -88.5033 0
23.05 -86.8917 0
27.3068 -85.7625 0
28.5109 -84.0778 0
25.8843 -86.11 0
26.7207 -84.4158 0
28.5109 -84.0778 0
29.6713 -82.0235 0
26.7207 -84.4158 0
27.5358 -82.345 0
25.8843 -86.11 0
26.7207 -84.4158 0
24.8809 -86.3919 0
25.3799 -84.6597 0
26.7207 -84.4158 0
27.5358 -82.345 0
25.3799 -84.6597 0
25.8447 -82.5745 0
29.6713 -82.0235 0
30.7931 -79.6164 0
27.5358 -82.345 0
28.3097 -79.9288 0
30.7931 -79.6164 0
31.8647 -76.8687 0
28.3097 -79.9288 0
29.066 -77.1661 0
27.5358 -82.345 0
28.3097 -79.9288 0
25.8447 -82.5745 0
26.2768 -80.1255 0
28.3097 -79.9288 0
29.066 -77.1661 0
26.2768 -80.1255 0
26.7272 -77.3625 0
24.8809 -86.3919 0
25.3799 -84.6597 0
24.011 -86.6852 0
24.1969 -84.8509 0
25.3799 -84.6597 0
25.8447 -82.5745 0
24.1969 -84.8509 0
24.3302 -82.6968 0
24.011 -86.6852 0
24.1969 -84.8509 0
23.05 -86.8917 0
22.9666 -84.9513 0
24.1969 -84.8509 0
24.3302 -82.6968 0
22.9666 -84.9513 0
22.825 -82.7207 0
25.8447 -82.5745 0
26.2768 -80.1255 0
24.3302 -82.6968 0
24.468 -80.2178 0
26.2768 -80.1255 0
26.7272 -77.3625 0
24.468 -80.2178 0
24.6061 -77.4506 0
24.3302 -82.6968 0
24.468 -80.2178 0
22.825 -82.7207 0
22.6765 -80.2208 0
24.468 -80.2178 0
24.6061 -77.4506 0
22.6765 -80.2208 0
22.5416 -77.4268 0
22.2661 -90.8001 0
22.6323 -90.5402 0
22.2661 -91.3573 0
22.3917 -91.0558 0
22.6323 -90.5402 0
22.9125 -89.7706 0
22.3917 -91.0558 0
22.4155 -90.1853 0
22.2661 -91.3573 0
22.3917 -91.0558 0
22.2661 -91.883 0
22.0538 -91.5597 0
22.3917 -91.0558 0
22.4155 -90.1853 0
22.0538 -91.5597 0
21.7425 -90.3902 0
22.9125 -89.7706 0
23.0444 -88.5033 0
22.4155 -90.1853 0
22.2491 -88.7329 0
23.0444 -88.5033 0
23.05 -86.8917 0
22.2491 -88.7329 0
21.9814 -86.9759 0
22.4155 -90.1853 0
22.2491 -88.7329 0
21.7425 -90.3902 0
21.2924 -88.7975 0
22.2491 -88.7329 0
21.9814 -86.9759 0
21.2924 -88.7975 0
20.7243 -86.9225 0
22.2661 -91.883 0
22.0538 -91.5597 0
22.2661 -92.429 0
21.6436 -91.7574 0
22.0538 -91.5597 0
21.7425 -90.3902 0
21.6436 -91.7574 0
20.8821 -90.3565 0
22.2661 -92.429 0
21.6436 -91.7574 0
22.2661 -92.3964 0
20.7726 -91.6076 0
21.6436 -91.7574 0
20.8821 -90.3565 0
20.7726 -91.6076 0
19.4818 -90.0345 0
21.7425 -90.3902 0
21.2924 -88.7975 0
20.8821 -90.3565 0
20.0414 -88.6721 0
21.2924 -88.7975 0
20.7243 -86.9225 0
20.0414 -88.6721 0
19.1833 -86.7451 0
20.8821 -90.3565 0
20.0414 -88.6721 0
19.4818 -90.0345 0
18.315 -88.349 0
20.0414 -88.6721 0
19.1833 -86.7451 0
18.315 -88.349 0
17.2058 -86.4228 0
23.05 -86.8917 0
22.9666 -84.9513 0
21.9814 -86.9759 0
21.6097 -84.9418 0
22.9666 -84.9513 0
22.825 -82.7207 0
21.6097 -84.9418 0
21.2166 -82.6609 0
21.9814 -86.9759 0
21.6097 -84.9418 0
20.7243 -86.9225 0
20.1197 -84.8347 0
21.6097 -84.9418 0
21.2166 -82.6609 0
20.1197 -84.8347 0
19.4674 -82.4941 0
22.825 -82.7207 0
22.6765 -80.2208 0
21.2166 -82.6609 0
20.8142 -80.1185 0
22.6765 -80.2208 0
22.5416 -77.4268 0
20.8142 -80.1185 0
20.4417 -77.2949 0
21.2166 -82.6609 0
20.8142 -80.1185 0
19.4674 -82.4941 0
18.8324 -79.8806 0
20.8142 -80.1185 0
20.4417 -77.2949 0
18.8324 -79.8806 0
18.2594 -77.0724 0
20.7243 -86.9225 0
20.1197 -84.8347 0
19.1833 -86.7451 0
18.3334 -84.5918 0
20.1197 -84.8347 0
19.4674 -82.4941 0
18.3334 -84.5918 0
17.497 -82.2192 0
19.1833 -86.7451 0
18.3334 -84.5918 0
17.2058 -86.4228 0
16.1277 -84.2744 0
18.3334 -84.5918 0
17.497 -82.2192 0
16.1277 -84.2744 0
15.074 -81.9072 0
19.4674 -82.4941 0
18.8324 -79.8806 0
17.497 -82.2192 0
16.6779 -79.6297 0
18.8324 -79.8806 0
18.2594 -77.0724 0
16.6779 -79.6297 0
15.8839 -76.8218 0
17.497 -82.2192 0
16.6779 -79.6297 0
15.074 -81.9072 0
14.0426 -79.3247 0
16.6779 -79.6297 0
15.8839 -76.8218 0
14.0426 -79.3247 0
13.0298 -76.5235 0
12.6676 -76.8687 0
13.7391 -79.6164 0
15.4663 -77.1661 0
16.2225 -79.9288 0
13.7391 -79.6164 0
14.8609 -82.0235 0
16.2225 -79.9288 0
16.9965 -82.345 0
15.4663 -77.1661 0
16.2225 -79.9288 0
17.805 -77.3625 0
18.2555 -80.1255 0
16.2225 -79.9288 0
16.9965 -82.345 0
18.2555 -80.1255 0
18.6876 -82.5745 0
14.8609 -82.0235 0
16.0214 -84.0778 0
16.9965 -82.345 0
17.8116 -84.4158 0
16.0214 -84.0778 0
17.2255 -85.7625 0
17.8116 -84.4158 0
18.648 -86.11 0
16.9965 -82.345 0
17.8116 -84.4158 0
18.6876 -82.5745 0
19.1523 -84.6597 0
17.8116 -84.4158 0
18.648 -86.11 0
19.1523 -84.6597 0
19.6514 -86.3919 0
17.805 -77.3625 0
18.2555 -80.1255 0
19.9262 -77.4506 0
20.0643 -80.2178 0
18.2555 -80.1255 0
18.6876 -82.5745 0
20.0643 -80.2178 0
20.2021 -82.6968 0
19.9262 -77.4506 0
20.0643 -80.2178 0
21.9907 -77.4268 0
21.8557 -80.2208 0
20.0643 -80.2178 0
20.2021 -82.6968 0
21.8557 -80.2208 0
21.7073 -82.7207 0
18.6876 -82.5745 0
19.1523 -84.6597 0
20.2021 -82.6968 0
20.3353 -84.8509 0
19.1523 -84.6597 0
19.6514 -86.3919 0
20.3353 -84.8509 0
20.5213 -86.6852 0
20.2021 -82.6968 0
20.3353 -84.8509 0
21.7073 -82.7207 0
21.5657 -84.9513 0
20.3353 -84.8509 0
20.5213 -86.6852 0
21.5657 -84.9513 0
21.4823 -86.8917 0
17.2255 -85.7625 0
18.4541 -87.0738 0
18.648 -86.11 0
19.5268 -87.4319 0
18.4541 -87.0738 0
19.7058 -88.0246 0
19.5268 -87.4319 0
20.4333 -88.3903 0
18.648 -86.11 0
19.5268 -87.4319 0
19.6514 -86.3919 0
20.1636 -87.7583 0
19.5268 -87.4319 0
20.4333 -88.3903 0
20.1636 -87.7583 0
20.7751 -88.7906 0
19.7058 -88.0246 0
20.9797 -88.6058 0
20.4333 -88.3903 0
21.3482 -88.9762 0
20.9797 -88.6058 0
22.2661 -88.8016 0
21.3482 -88.9762 0
22.2661 -89.1736 0
20.4333 -88.3903 0
21.3482 -88.9762 0
20.7751 -88.7906 0
21.4892 -89.4585 0
21.3482 -88.9762 0
22.2661 -89.1736 0
21.4892 -89.4585 0
22.2661 -89.6836 0
19.6514 -86.3919 0
20.1636 -87.7583 0
20.5213 -86.6852 0
20.7964 -88.1427 0
20.1636 -87.7583 0
20.7751 -88.7906 0
20.7964 -88.1427 0
21.1743 -89.2965 0
20.5213 -86.6852 0
20.7964 -88.1427 0
21.4823 -86.8917 0
21.4878 -88.5033 0
20.7964 -88.1427 0
21.1743 -89.2965 0
21.4878 -88.5033 0
21.6197 -89.7706 0
20.7751 -88.7906 0
21.4892 -89.4585 0
21.1743 -89.2965 0
21.6858 -90.0034 0
21.4892 -89.4585 0
22.2661 -89.6836 0
21.6858 -90.0034 0
22.2661 -90.2482 0
21.1743 -89.2965 0
21.6858 -90.0034 0
21.6197 -89.7706 0
21.8999 -90.5402 0
21.6858 -90.0034 0
22.2661 -90.2482 0
21.8999 -90.5402 0
22.2661 -90.8001 0
21.9907 -77.4268 0
21.8557 -80.2208 0
24.0906 -77.2949 0
23.7181 -80.1185 0
21.8557 -80.2208 0
21.7073 -82.7207 0
23.7181 -80.1185 0
23.3157 -82.6609 0
24.0906 -77.2949 0
23.7181 -80.1185 0
26.2729 -77.0724 0
25.6999 -79.8806 0
23.7181 -80.1185 0
23.3157 -82.6609 0
25.6999 -79.8806 0
25.0649 -82.4941 0
21.7073 -82.7207 0
21.5657 -84.9513 0
23.3157 -82.6609 0
22.9226 -84.9418 0
21.5657 -84.9513 0
21.4823 -86.8917 0
22.9226 -84.9418 0
22.5509 -86.9759 0
23.3157 -82.6609 0
22.9226 -84.9418 0
25.0649 -82.4941 0
24.4126 -84.8347 0
22.9226 -84.9418 0
22.5509 -86.9759 0
24.4126 -84.8347 0
23.808 -86.9225 0
26.2729 -77.0724 0
25.6999 -79.8806 0
28.6484 -76.8218 0
27.8544 -79.6297 0
25.6999 -79.8806 0
25.0649 -82.4941 0
27.8544 -79.6297 0
27.0352 -82.2192 0
28.6484 -76.8218 0
27.8544 -79.6297 0
31.5024 -76.5235 0
30.4897 -79.3247 0
27.8544 -79.6297 0
27.0352 -82.2192 0
30.4897 -79.3247 0
29.4583 -81.9072 0
25.0649 -82.4941 0
24.4126 -84.8347 0
27.0352 -82.2192 0
26.1988 -84.5918 0
24.4126 -84.8347 0
23.808 -86.9225 0
26.1988 -84.5918 0
25.349 -86.7451 0
27.0352 -82.2192 0
26.1988 -84.5918 0
29.4583 -81.9072 0
28.4046 -84.2744 0
26.1988 -84.5918 0
25.349 -86.7451 0
28.4046 -84.2744 0
27.3264 -86.4228 0
21.4823 -86.8917 0
21.4878 -88.5033 0
22.5509 -86.9759 0
22.2831 -88.7329 0
21.4878 -88.5033 0
21.6197 -89.7706 0
22.2831 -88.7329 0
22.1167 -90.1853 0
22.5509 -86.9759 0
22.2831 -88.7329 0
23.808 -86.9225 0
23.2399 -88.7975 0
22.2831 -88.7329 0
22.1167 -90.1853 0
23.2399 -88.7975 0
22.7898 -90.3902 0
21.6197 -89.7706 0
21.8999 -90.5402 0
22.1167 -90.1853 0
22.1406 -91.0558 0
21.8999 -90.5402 0
22.2661 -90.8001 0
22.1406 -91.0558 0
22.2661 -91.3573 0
22.1167 -90.1853 0
22.1406 -91.0558 0
22.7898 -90.3902 0
22.4784 -91.5597 0
22.1406 -91.0558 0
22.2661 -91.3573 0
22.4784 -91.5597 0
22.2661 -91.883 0
23.808 -86.9225 0
23.2399 -88.7975 0
25.349 -86.7451 0
24.4909 -88.6721 0
23.2399 -88.7975 0
22.7898 -90.3902 0
24.4909 -88.6721 0
23.6501 -90.3565 0
25.349 -86.7451 0
24.4909 -88.6721 0
27.3264 -86.4228 0
26.2173 -88.349 0
24.4909 -88.6721 0
23.6501 -90.3565 0
26.2173 -88.349 0
25.0505 -90.0345 0
22.7898 -90.3902 0
22.4784 -91.5597 0
23.6501 -90.3565 0
22.8886 -91.7574 0
22.4784 -91.5597 0
22.2661 -91.883 0
22.8886 -91.7574 0
22.2661 -92.429 0
23.6501 -90.3565 0
22.8886 -91.7574 0
25.0505 -90.0345 0
23.7597 -91.6076 0
22.8886 -91.7574 0
22.2661 -92.429 0
23.7597 -91.6076 0
22.2661 -92.3964 0
5.51078 -45.7554 0
6.29091 -50.4079 0
10.1612 -45.9793 0
10.7442 -50.6397 0
6.29091 -50.4079 0
7.10148 -54.855 0
10.7442 -50.6397 0
11.3525 -55.0943 0
10.1612 -45.9793 0
10.7442 -50.6397 0
14.2433 -46.1498 0
14.6583 -50.7998 0
10.7442 -50.6397 0
11.3525 -55.0943 0
14.6583 -50.7998 0
15.0805 -55.2697 0
7.10148 -54.855 0
7.93712 -59.104 0
11.3525 -55.0943 0
11.9923 -59.354 0
7.93712 -59.104 0
8.81257 -63.142 0
11.9923 -59.354 0
12.6463 -63.4022 0
11.3525 -55.0943 0
11.9923 -59.354 0
15.0805 -55.2697 0
15.5202 -59.5319 0
11.9923 -59.354 0
12.6463 -63.4022 0
15.5202 -59.5319 0
15.9707 -63.5555 0
14.2433 -46.1498 0
14.6583 -50.7998 0
18.1893 -46.2206 0
18.3966 -50.9094 0
14.6583 -50.7998 0
15.0805 -55.2697 0