# vtk DataFile Version 3.0
#This file was generated by the deal.II library on 2020/9/2 at 8:40:25
ASCII
DATASET UNSTRUCTURED_GRID

POINTS 1536 double
5 0 0
5.125 0 0
5 0.125 0
5.125 0.125 0
5.125 0 0
5.25 0 0
5.125 0.125 0
5.25 0.125 0
5 0.125 0
5.125 0.125 0
5 0.25 0
5.125 0.25 0
5.125 0.125 0
5.25 0.125 0
5.125 0.25 0
5.25 0.25 0
5.25 0 0
5.375 0 0
5.25 0.125 0
5.375 0.125 0
5.375 0 0
5.5 0 0
5.375 0.125 0
5.5 0.125 0
5.25 0.125 0
5.375 0.125 0
5.25 0.25 0
5.375 0.25 0
5.375 0.125 0
5.5 0.125 0
5.375 0.25 0
5.5 0.25 0
5 0.25 0
5.125 0.25 0
5 0.375 0
5.125 0.375 0
5.125 0.25 0
5.25 0.25 0
5.125 0.375 0
5.25 0.375 0
5 0.375 0
5.125 0.375 0
5 0.5 0
5.125 0.5 0
5.125 0.375 0
5.25 0.375 0
5.125 0.5 0
5.25 0.5 0
5.25 0.25 0
5.375 0.25 0
5.25 0.375 0
5.375 0.375 0
5.375 0.25 0
5.5 0.25 0
5.375 0.375 0
5.5 0.375 0
5.25 0.375 0
5.375 0.375 0
5.25 0.5 0
5.375 0.5 0
5.375 0.375 0
5.5 0.375 0
5.375 0.5 0
5.5 0.5 0
5.5 0 0
5.625 0 0
5.5 0.125 0
5.625 0.125 0
5.625 0 0
5.75 0 0
5.625 0.125 0
5.75 0.125 0
5.5 0.125 0
5.625 0.125 0
5.5 0.25 0
5.625 0.25 0
5.625 0.125 0
5.75 0.125 0
5.625 0.25 0
5.75 0.25 0
5.75 0 0
5.875 0 0
5.75 0.125 0
5.875 0.125 0
5.875 0 0
6 0 0
5.875 0.125 0
6 0.125 0
5.75 0.125 0
5.875 0.125 0
5.75 0.25 0
5.875 0.25 0
5.875 0.125 0
6 0.125 0
5.875 0.25 0
6 0.25 0
5.5 0.25 0
5.625 0.25 0
5.5 0.375 0
5.625 0.375 0
5.625 0.25 0
5.75 0.25 0
5.625 0.375 0
5.75 0.375 0
5.5 0.375 0
5.625 0.375 0
5.5 0.5 0
5.625 0.5 0
5.625 0.375 0
5.75 0.375 0
5.625 0.5 0
5.75 0.5 0
5.75 0.25 0
5.875 0.25 0
5.75 0.375 0
5.875 0.375 0
5.875 0.25 0
6 0.25 0
5.875 0.375 0
6 0.375 0
5.75 0.375 0
5.875 0.375 0
5.75 0.5 0
5.875 0.5 0
5.875 0.375 0
6 0.375 0
5.875 0.5 0
6 0.5 0
5 0.5 0
5.125 0.5 0
5 0.625 0
5.125 0.625 0
5.125 0.5 0
5.25 0.5 0
5.125 0.625 0
5.25 0.625 0
5 0.625 0
5.125 0.625 0
5 0.75 0
5.125 0.75 0
5.125 0.625 0
5.25 0.625 0
5.125 0.75 0
5.25 0.75 0
5.25 0.5 0
5.375 0.5 0
5.25 0.625 0
5.375 0.625 0
5.375 0.5 0
5.5 0.5 0
5.375 0.625 0
5.5 0.625 0
5.25 0.625 0
5.375 0.625 0
5.25 0.75 0
5.375 0.75 0
5.375 0.625 0
5.5 0.625 0
5.375 0.75 0
5.5 0.75 0
5 0.75 0
5.125 0.75 0
5 0.875 0
5.125 0.875 0
5.125 0.75 0
5.25 0.75 0
5.125 0.875 0
5.25 0.875 0
5 0.875 0
5.125 0.875 0
5 1 0
5.125 1 0
5.125 0.875 0
5.25 0.875 0
5.125 1 0
5.25 1 0
5.25 0.75 0
5.375 0.75 0
5.25 0.875 0
5.375 0.875 0
5.375 0.75 0
5.5 0.75 0
5.375 0.875 0
5.5 0.875 0
5.25 0.875 0
5.375 0.875 0
5.25 1 0
5.375 1 0
5.375 0.875 0
5.5 0.875 0
5.375 1 0
5.5 1 0
5.5 0.5 0
5.625 0.5 0
5.5 0.625 0
5.625 0.625 0
5.625 0.5 0
5.75 0.5 0
5.625 0.625 0
5.75 0.625 0
5.5 0.625 0
5.625 0.625 0
5.5 0.75 0
5.625 0.75 0
5.625 0.625 0
5.75 0.625 0
5.625 0.75 0
5.75 0.75 0
5.75 0.5 0
5.875 0.5 0
5.75 0.625 0
5.875 0.625 0
5.875 0.5 0
6 0.5 0
5.875 0.625 0
6 0.625 0
5.75 0.625 0
5.875 0.625 0
5.75 0.75 0
5.875 0.75 0
5.875 0.625 0
6 0.625 0
5.875 0.75 0
6 0.75 0
5.5 0.75 0
5.625 0.75 0
5.5 0.875 0
5.625 0.875 0
5.625 0.75 0
5.75 0.75 0
5.625 0.875 0
5.75 0.875 0
5.5 0.875 0
5.625 0.875 0
5.5 1 0
5.625 1 0
5.625 0.875 0
5.75 0.875 0
5.625 1 0
5.75 1 0
5.75 0.75 0
5.875 0.75 0
5.75 0.875 0
5.875 0.875 0
5.875 0.75 0
6 0.75 0
5.875 0.875 0
6 0.875 0
5.75 0.875 0
5.875 0.875 0
5.75 1 0
5.875 1 0
5.875 0.875 0
6 0.875 0
5.875 1 0
6 1 0
4 0 0
4.125 0 0
4 0.125 0
4.125 0.125 0
4.125 0 0
4.25 0 0
4.125 0.125 0
4.25 0.125 0
4 0.125 0
4.125 0.125 0
4 0.25 0
4.125 0.25 0
4.125 0.125 0
4.25 0.125 0
4.125 0.25 0
4.25 0.25 0
4.25 0 0
4.375 0 0
4.25 0.125 0
4.375 0.125 0
4.375 0 0
4.5 0 0
4.375 0.125 0
4.5 0.125 0
4.25 0.125 0
4.375 0.125 0
4.25 0.25 0
4.375 0.25 0
4.375 0.125 0
4.5 0.125 0
4.375 0.25 0
4.5 0.25 0
4 0.25 0
4.125 0.25 0
4 0.375 0
4.125 0.375 0
4.125 0.25 0
4.25 0.25 0
4.125 0.375 0
4.25 0.375 0
4 0.375 0
4.125 0.375 0
4 0.5 0
4.125 0.5 0
4.125 0.375 0
4.25 0.375 0
4.125 0.5 0
4.25 0.5 0
4.25 0.25 0
4.375 0.25 0
4.25 0.375 0
4.375 0.375 0
4.375 0.25 0
4.5 0.25 0
4.375 0.375 0
4.5 0.375 0
4.25 0.375 0
4.375 0.375 0
4.25 0.5 0
4.375 0.5 0
4.375 0.375 0
4.5 0.375 0
4.375 0.5 0
4.5 0.5 0
4.5 0 0
4.625 0 0
4.5 0.125 0
4.625 0.125 0
4.625 0 0
4.75 0 0
4.625 0.125 0
4.75 0.125 0
4.5 0.125 0
4.625 0.125 0
4.5 0.25 0
4.625 0.25 0
4.625 0.125 0
4.75 0.125 0
4.625 0.25 0
4.75 0.25 0
4.75 0 0
4.875 0 0
4.75 0.125 0
4.875 0.125 0
4.875 0 0
5 0 0
4.875 0.125 0
5 0.125 0
4.75 0.125 0
4.875 0.125 0
4.75 0.25 0
4.875 0.25 0
4.875 0.125 0
5 0.125 0
4.875 0.25 0
5 0.25 0
4.5 0.25 0
4.625 0.25 0
4.5 0.375 0
4.625 0.375 0
4.625 0.25 0
4.75 0.25 0
4.625 0.375 0
4.75 0.375 0
4.5 0.375 0
4.625 0.375 0
4.5 0.5 0
4.625 0.5 0
4.625 0.375 0
4.75 0.375 0
4.625 0.5 0
4.75 0.5 0
4.75 0.25 0
4.875 0.25 0
4.75 0.375 0
4.875 0.375 0
4.875 0.25 0
5 0.25 0
4.875 0.375 0
5 0.375 0
4.75 0.375 0
4.875 0.375 0
4.75 0.5 0
4.875 0.5 0
4.875 0.375 0
5 0.375 0
4.875 0.5 0
5 0.5 0
4 0.5 0
4.125 0.5 0
4 0.625 0
4.125 0.625 0
4.125 0.5 0
4.25 0.5 0
4.125 0.625 0
4.25 0.625 0
4 0.625 0
4.125 0.625 0
4 0.75 0
4.125 0.75 0
4.125 0.625 0
4.25 0.625 0
4.125 0.75 0
4.25 0.75 0
4.25 0.5 0
4.375 0.5 0
4.25 0.625 0
4.375 0.625 0
4.375 0.5 0
4.5 0.5 0
4.375 0.625 0
4.5 0.625 0
4.25 0.625 0
4.375 0.625 0
4.25 0.75 0
4.375 0.75 0
4.375 0.625 0
4.5 0.625 0
4.375 0.75 0
4.5 0.75 0
4 0.75 0
4.125 0.75 0
4 0.875 0
4.125 0.875 0
4.125 0.75 0
4.25 0.75 0
4.125 0.875 0
4.25 0.875 0
4 0.875 0
4.125 0.875 0
4 1 0
4.125 1 0
4.125 0.875 0
4.25 0.875 0
4.125 1 0
4.25 1 0
4.25 0.75 0
4.375 0.75 0
4.25 0.875 0
4.375 0.875 0
4.375 0.75 0
4.5 0.75 0
4.375 0.875 0
4.5 0.875 0
4.25 0.875 0
4.375 0.875 0
4.25 1 0
4.375 1 0
4.375 0.875 0
4.5 0.875 0
4.375 1 0
4.5 1 0
4.5 0.5 0
4.625 0.5 0
4.5 0.625 0
4.625 0.625 0
4.625 0.5 0
4.75 0.5 0
4.625 0.625 0
4.75 0.625 0
4.5 0.625 0
4.625 0.625 0
4.5 0.75 0
4.625 0.75 0
4.625 0.625 0
4.75 0.625 0
4.625 0.75 0
4.75 0.75 0
4.75 0.5 0
4.875 0.5 0
4.75 0.625 0
4.875 0.625 0
4.875 0.5 0
5 0.5 0
4.875 0.625 0
5 0.625 0
4.75 0.625 0
4.875 0.625 0
4.75 0.75 0
4.875 0.75 0
4.875 0.625 0
5 0.625 0
4.875 0.75 0
5 0.75 0
4.5 0.75 0
4.625 0.75 0
4.5 0.875 0
4.625 0.875 0
4.625 0.75 0
4.75 0.75 0
4.625 0.875 0
4.75 0.875 0
4.5 0.875 0
4.625 0.875 0
4.5 1 0
4.625 1 0
4.625 0.875 0
4.75 0.875 0
4.625 1 0
4.75 1 0
4.75 0.75 0
4.875 0.75 0
4.75 0.875 0
4.875 0.875 0
4.875 0.75 0
5 0.75 0
4.875 0.875 0
5 0.875 0
4.75 0.875 0
4.875 0.875 0
4.75 1 0
4.875 1 0
4.875 0.875 0
5 0.875 0
4.875 1 0
5 1 0
3 0 0
3.125 0 0
3 0.125 0
3.125 0.125 0
3.125 0 0
3.25 0 0
3.125 0.125 0
3.25 0.125 0
3 0.125 0
3.125 0.125 0
3 0.25 0
3.125 0.25 0
3.125 0.125 0
3.25 0.125 0
3.125 0.25 0
3.25 0.25 0
3.25 0 0
3.375 0 0
3.25 0.125 0
3.375 0.125 0
3.375 0 0
3.5 0 0
3.375 0.125 0
3.5 0.125 0
3.25 0.125 0
3.375 0.125 0
3.25 0.25 0
3.375 0.25 0
3.375 0.125 0
3.5 0.125 0
3.375 0.25 0
3.5 0.25 0
3 0.25 0
3.125 0.25 0
3 0.375 0
3.125 0.375 0
3.125 0.25 0
3.25 0.25 0
3.125 0.375 0
3.25 0.375 0
3 0.375 0
3.125 0.375 0
3 0.5 0
3.125 0.5 0
3.125 0.375 0
3.25 0.375 0
3.125 0.5 0
3.25 0.5 0
3.25 0.25 0
3.375 0.25 0
3.25 0.375 0
3.375 0.375 0
3.375 0.25 0
3.5 0.25 0
3.375 0.375 0
3.5 0.375 0
3.25 0.375 0
3.375 0.375 0
3.25 0.5 0
3.375 0.5 0
3.375 0.375 0
3.5 0.375 0
3.375 0.5 0
3.5 0.5 0
3.5 0 0
3.625 0 0
3.5 0.125 0
3.625 0.125 0
3.625 0 0
3.75 0 0
3.625 0.125 0
3.75 0.125 0
3.5 0.125 0
3.625 0.125 0
3.5 0.25 0
3.625 0.25 0
3.625 0.125 0
3.75 0.125 0
3.625 0.25 0
3.75 0.25 0
3.75 0 0
3.875 0 0
3.75 0.125 0
3.875 0.125 0
3.875 0 0
4 0 0
3.875 0.125 0
4 0.125 0
3.75 0.125 0
3.875 0.125 0
3.75 0.25 0
3.875 0.25 0
3.875 0.125 0
4 0.125 0
3.875 0.25 0
4 0.25 0
3.5 0.25 0
3.625 0.25 0
3.5 0.375 0
3.625 0.375 0
3.625 0.25 0
3.75 0.25 0
3.625 0.375 0
3.75 0.375 0
3.5 0.375 0
3.625 0.375 0
3.5 0.5 0
3.625 0.5 0
3.625 0.375 0
3.75 0.375 0
3.625 0.5 0
3.75 0.5 0
3.75 0.25 0
3.875 0.25 0
3.75 0.375 0
3.875 0.375 0
3.875 0.25 0
4 0.25 0
3.875 0.375 0
4 0.375 0
3.75 0.375 0
3.875 0.375 0
3.75 0.5 0
3.875 0.5 0
3.875 0.375 0
4 0.375 0
3.875 0.5 0
4 0.5 0
3 0.5 0
3.125 0.5 0
3 0.625 0
3.125 0.625 0
3.125 0.5 0
3.25 0.5 0
3.125 0.625 0
3.25 0.625 0
3 0.625 0
3.125 0.625 0
3 0.75 0
3.125 0.75 0
3.125 0.625 0
3.25 0.625 0
3.125 0.75 0
3.25 0.75 0
3.25 0.5 0
3.375 0.5 0
3.25 0.625 0
3.375 0.625 0
3.375 0.5 0
3.5 0.5 0
3.375 0.625 0
3.5 0.625 0
3.25 0.625 0
3.375 0.625 0
3.25 0.75 0
3.375 0.75 0
3.375 0.625 0
3.5 0.625 0
3.375 0.75 0
3.5 0.75 0
3 0.75 0
3.125 0.75 0
3 0.875 0
3.125 0.875 0
3.125 0.75 0
3.25 0.75 0
3.125 0.875 0
3.25 0.875 0
3 0.875 0
3.125 0.875 0
3 1 0
3.125 1 0
3.125 0.875 0
3.25 0.875 0
3.125 1 0
3.25 1 0
3.25 0.75 0
3.375 0.75 0
3.25 0.875 0
3.375 0.875 0
3.375 0.75 0
3.5 0.75 0
3.375 0.875 0
3.5 0.875 0
3.25 0.875 0
3.375 0.875 0
3.25 1 0
3.375 1 0
3.375 0.875 0
3.5 0.875 0
3.375 1 0
3.5 1 0
3.5 0.5 0
3.625 0.5 0
3.5 0.625 0
3.625 0.625 0
3.625 0.5 0
3.75 0.5 0
3.625 0.625 0
3.75 0.625 0
3.5 0.625 0
3.625 0.625 0
3.5 0.75 0
3.625 0.75 0
3.625 0.625 0
3.75 0.625 0
3.625 0.75 0
3.75 0.75 0
3.75 0.5 0
3.875 0.5 0
3.75 0.625 0
3.875 0.625 0
3.875 0.5 0
4 0.5 0
3.875 0.625 0
4 0.625 0
3.75 0.625 0
3.875 0.625 0
3.75 0.75 0
3.875 0.75 0
3.875 0.625 0
4 0.625 0
3.875 0.75 0
4 0.75 0
3.5 0.75 0
3.625 0.75 0
3.5 0.875 0
3.625 0.875 0
3.625 0.75 0
3.75 0.75 0
3.625 0.875 0
3.75 0.875 0
3.5 0.875 0
3.625 0.875 0
3.5 1 0
3.625 1 0
3.625 0.875 0
3.75 0.875 0
3.625 1 0
3.75 1 0
3.75 0.75 0
3.875 0.75 0
3.75 0.875 0
3.875 0.875 0
3.875 0.75 0
4 0.75 0
3.875 0.875 0
4 0.875 0
3.75 0.875 0
3.875 0.875 0
3.75 1 0
3.875 1 0
3.875 0.875 0
4 0.875 0
3.875 1 0
4 1 0
2 0 0
2.125 0 0
2 0.125 0
2.125 0.125 0
2.125 0 0
2.25 0 0
2.125 0.125 0
2.25 0.125 0
2 0.125 0
2.125 0.125 0
2 0.25 0
2.125 0.25 0
2.125 0.125 0
2.25 0.125 0
2.125 0.25 0
2.25 0.25 0
2.25 0 0
2.375 0 0
2.25 0.125 0
2.375 0.125 0
2.375 0 0
2.5 0 0
2.375 0.125 0
2.5 0.125 0
2.25 0.125 0
2.375 0.125 0
2.25 0.25 0
2.375 0.25 0
2.375 0.125 0
2.5 0.125 0
2.375 0.25 0
2.5 0.25 0
2 0.25 0
2.125 0.25 0
2 0.375 0
2.125 0.375 0
2.125 0.25 0
2.25 0.25 0
2.125 0.375 0
2.25 0.375 0
2 0.375 0
2.125 0.375 0
2 0.5 0
2.125 0.5 0
2.125 0.375 0
2.25 0.375 0
2.125 0.5 0
2.25 0.5 0
2.25 0.25 0
2.375 0.25 0
2.25 0.375 0
2.375 0.375 0
2.375 0.25 0
[...]
POINT_DATA 1536
VECTORS displacements double
37.7714 -44.0628 0
38.4884 -39.4343 0
33.3372 -44.2752 0
33.8727 -39.6365 0
38.4884 -39.4343 0
39.1755 -34.6272 0
33.8727 -39.6365 0
34.3815 -34.8199 0
33.3372 -44.2752 0
33.8727 -39.6365 0
29.308 -44.4192 0
29.6649 -39.7705 0
33.8727 -39.6365 0
34.3815 -34.8199 0
29.6649 -39.7705 0
29.9986 -34.9415 0
39.1755 -34.6272 0
39.8366 -29.6475 0
34.3815 -34.8199 0
34.8642 -29.8299 0
39.8366 -29.6475 0
40.4832 -24.4932 0
34.8642 -29.8299 0
35.3169 -24.6703 0
34.3815 -34.8199 0
34.8642 -29.8299 0
29.9986 -34.9415 0
30.3017 -29.9387 0
34.8642 -29.8299 0
35.3169 -24.6703 0
30.3017 -29.9387 0
30.5747 -24.7566 0
29.308 -44.4192 0
29.6649 -39.7705 0
25.4575 -44.4901 0
25.6318 -39.8318 0
29.6649 -39.7705 0
29.9986 -34.9415 0
25.6318 -39.8318 0
25.7857 -34.9902 0
25.4575 -44.4901 0
25.6318 -39.8318 0
21.6847 -44.4888 0
21.677 -39.8211 0
25.6318 -39.8318 0
25.7857 -34.9902 0
21.677 -39.8211 0
21.6549 -34.9694 0
29.9986 -34.9415 0
30.3017 -29.9387 0
25.7857 -34.9902 0
25.918 -29.9687 0
30.3017 -29.9387 0
30.5747 -24.7566 0
25.918 -29.9687 0
26.0079 -24.7748 0
25.7857 -34.9902 0
25.918 -29.9687 0
21.6549 -34.9694 0
21.6114 -29.9385 0
25.918 -29.9687 0
26.0079 -24.7748 0
21.6114 -29.9385 0
21.5526 -24.7295 0
40.4832 -24.4932 0
41.1273 -19.1598 0
35.3169 -24.6703 0
35.7399 -19.3188 0
41.1273 -19.1598 0
41.8279 -13.5676 0
35.7399 -19.3188 0
36.087 -13.7596 0
35.3169 -24.6703 0
35.7399 -19.3188 0
30.5747 -24.7566 0
30.7865 -19.3903 0
35.7399 -19.3188 0
36.087 -13.7596 0
30.7865 -19.3903 0
30.9325 -13.7583 0
41.8279 -13.5676 0
42.6333 -7.6997 0
36.087 -13.7596 0
36.2304 -7.62546 0
42.6333 -7.6997 0
43.0691 0 0
36.2304 -7.62546 0
36.4114 -1.38889 0
36.087 -13.7596 0
36.2304 -7.62546 0
30.9325 -13.7583 0
30.9254 -7.87901 0
36.2304 -7.62546 0
36.4114 -1.38889 0
30.9254 -7.87901 0
31.0717 -2.35194 0
30.5747 -24.7566 0
30.7865 -19.3903 0
26.0079 -24.7748 0
26.0665 -19.3836 0
30.7865 -19.3903 0
30.9325 -13.7583 0
26.0665 -19.3836 0
26.0136 -13.8314 0
26.0079 -24.7748 0
26.0665 -19.3836 0
21.5526 -24.7295 0
21.4364 -19.3974 0
26.0665 -19.3836 0
26.0136 -13.8314 0
21.4364 -19.3974 0
21.3322 -13.9976 0
30.9325 -13.7583 0
30.9254 -7.87901 0
26.0136 -13.8314 0
26.0172 -8.29112 0
30.9254 -7.87901 0
31.0717 -2.35194 0
26.0172 -8.29112 0
26.1264 -3.00702 0
26.0136 -13.8314 0
26.0172 -8.29112 0
21.3322 -13.9976 0
21.3055 -8.63935 0
26.0172 -8.29112 0
26.1264 -3.00702 0
21.3055 -8.63935 0
21.3857 -3.55036 0
21.6847 -44.4888 0
21.677 -39.8211 0
17.9102 -44.4181 0
17.7172 -39.7465 0
21.677 -39.8211 0
21.6549 -34.9694 0
17.7172 -39.7465 0
17.5222 -34.8867 0
17.9102 -44.4181 0
17.7172 -39.7465 0
14.0478 -44.2839 0
13.6734 -39.6162 0
17.7172 -39.7465 0
17.5222 -34.8867 0
13.6734 -39.6162 0
13.3053 -34.7759 0
21.6549 -34.9694 0
21.6114 -29.9385 0
17.5222 -34.8867 0
17.3184 -29.8598 0
21.6114 -29.9385 0
21.5526 -24.7295 0
17.3184 -29.8598 0
17.0978 -24.6984 0
17.5222 -34.8867 0
17.3184 -29.8598 0
13.3053 -34.7759 0
12.9431 -29.7786 0
17.3184 -29.8598 0
17.0978 -24.6984 0
12.9431 -29.7786 0
12.6181 -24.6602 0
14.0478 -44.2839 0
13.6734 -39.6162 0
9.98917 -44.1099 0
9.43867 -39.4546 0
13.6734 -39.6162 0
13.3053 -34.7759 0
9.43867 -39.4546 0
8.9189 -34.6392 0
9.98917 -44.1099 0
9.43867 -39.4546 0
5.59185 -43.8975 0
4.92723 -39.2577 0
9.43867 -39.4546 0
8.9189 -34.6392 0
4.92723 -39.2577 0
4.33829 -34.4774 0
13.3053 -34.7759 0
12.9431 -29.7786 0
8.9189 -34.6392 0
8.46616 -29.6747 0
12.9431 -29.7786 0
12.6181 -24.6602 0
8.46616 -29.6747 0
8.10459 -24.6168 0
8.9189 -34.6392 0
8.46616 -29.6747 0
4.33829 -34.4774 0
3.80892 -29.5602 0
8.46616 -29.6747 0
8.10459 -24.6168 0
3.80892 -29.5602 0
3.32206 -24.5123 0
21.5526 -24.7295 0
21.4364 -19.3974 0
17.0978 -24.6984 0
16.891 -19.4382 0
21.4364 -19.3974 0
21.3322 -13.9976 0
16.891 -19.4382 0
16.757 -14.1507 0
17.0978 -24.6984 0
16.891 -19.4382 0
12.6181 -24.6602 0
12.3793 -19.4731 0
16.891 -19.4382 0
16.757 -14.1507 0
12.3793 -19.4731 0
12.2138 -14.2599 0
21.3322 -13.9976 0
21.3055 -8.63935 0
16.757 -14.1507 0
16.7096 -8.9191 0
21.3055 -8.63935 0
21.3857 -3.55036 0
16.7096 -8.9191 0
16.7733 -3.98218 0
16.757 -14.1507 0
16.7096 -8.9191 0
12.2138 -14.2599 0
12.1474 -9.11898 0
16.7096 -8.9191 0
16.7733 -3.98218 0
12.1474 -9.11898 0
12.1718 -4.24466 0
12.6181 -24.6602 0
12.3793 -19.4731 0
8.10459 -24.6168 0
7.80135 -19.4663 0
12.3793 -19.4731 0
12.2138 -14.2599 0
7.80135 -19.4663 0
7.58582 -14.2925 0
8.10459 -24.6168 0
7.80135 -19.4663 0
3.32206 -24.5123 0
2.93631 -19.3887 0
7.80135 -19.4663 0
7.58582 -14.2925 0
2.93631 -19.3887 0
2.69994 -14.2609 0
12.2138 -14.2599 0
12.1474 -9.11898 0
7.58582 -14.2925 0
7.48163 -9.21499 0
12.1474 -9.11898 0
12.1718 -4.24466 0
7.48163 -9.21499 0
7.46392 -4.32978 0
7.58582 -14.2925 0
7.48163 -9.21499 0
2.69994 -14.2609 0
2.62131 -9.23068 0
7.48163 -9.21499 0
7.46392 -4.32978 0
2.62131 -9.23068 0
2.61624 -4.33525 0
30.8129 -73.694 0
31.8096 -70.8043 0
28.1491 -73.9867 0
28.8806 -71.0866 0
31.8096 -70.8043 0
32.7677 -67.6567 0
28.8806 -71.0866 0
29.5894 -67.9288 0
28.1491 -73.9867 0
28.8806 -71.0866 0
25.8531 -74.1851 0
26.3221 -71.2782 0
28.8806 -71.0866 0
29.5894 -67.9288 0
26.3221 -71.2782 0
26.7847 -68.114 0
32.7677 -67.6567 0
33.6885 -64.2662 0
29.5894 -67.9288 0
30.2751 -64.5283 0
33.6885 -64.2662 0
34.5734 -60.6457 0
30.2751 -64.5283 0
30.9369 -60.8979 0
29.5894 -67.9288 0
30.2751 -64.5283 0
26.7847 -68.114 0
27.2395 -64.7068 0
30.2751 -64.5283 0
30.9369 -60.8979 0
27.2395 -64.7068 0
27.6839 -61.0699 0
25.8531 -74.1851 0
26.3221 -71.2782 0
23.7816 -74.2878 0
23.9843 -71.377 0
26.3221 -71.2782 0
26.7847 -68.114 0
23.9843 -71.377 0
24.1946 -68.2104 0
23.7816 -74.2878 0
23.9843 -71.377 0
21.7852 -74.2972 0
21.7298 -71.3847 0
23.9843 -71.377 0
24.1946 -68.2104 0
21.7298 -71.3847 0
21.6922 -68.2195 0
26.7847 -68.114 0
27.2395 -64.7068 0
24.1946 -68.2104 0
24.4111 -64.8009 0
27.2395 -64.7068 0
27.6839 -61.0699 0
24.4111 -64.8009 0
24.6309 -61.1608 0
24.1946 -68.2104 0
24.4111 -64.8009 0
21.6922 -68.2195 0
21.6718 -64.812 0
24.4111 -64.8009 0
24.6309 -61.1608 0
21.6718 -64.812 0
21.6656 -61.1729 0
34.5734 -60.6457 0
35.4237 -56.8061 0
30.9369 -60.8979 0
31.5746 -57.0485 0
35.4237 -56.8061 0
36.2398 -52.7567 0
31.5746 -57.0485 0
32.1876 -52.9892 0
30.9369 -60.8979 0
31.5746 -57.0485 0
27.6839 -61.0699 0
28.1152 -57.2142 0
31.5746 -57.0485 0
32.1876 -52.9892 0
28.1152 -57.2142 0
28.531 -53.1487 0
36.2398 -52.7567 0
37.0222 -48.5062 0
32.1876 -52.9892 0
32.7753 -48.7288 0
37.0222 -48.5062 0
37.7714 -44.0628 0
32.7753 -48.7288 0
33.3372 -44.2752 0
32.1876 -52.9892 0
32.7753 -48.7288 0
28.531 -53.1487 0
28.9294 -48.881 0
32.7753 -48.7288 0
33.3372 -44.2752 0
28.9294 -48.881 0
29.308 -44.4192 0
27.6839 -61.0699 0
28.1152 -57.2142 0
24.6309 -61.1608 0
24.8498 -57.3014 0
28.1152 -57.2142 0
28.531 -53.1487 0
24.8498 -57.3014 0
25.0629 -53.2319 0
24.6309 -61.1608 0
24.8498 -57.3014 0
21.6656 -61.1729 0
21.6694 -57.3123 0
24.8498 -57.3014 0
25.0629 -53.2319 0
21.6694 -57.3123 0
21.6776 -53.2398 0
28.531 -53.1487 0
28.9294 -48.881 0
25.0629 -53.2319 0
25.2665 -48.9594 0
28.9294 -48.881 0
29.308 -44.4192 0
25.2665 -48.9594 0
25.4575 -44.4901 0
25.0629 -53.2319 0
25.2665 -48.9594 0
21.6776 -53.2398 0
21.6842 -48.9634 0
25.2665 -48.9594 0
25.4575 -44.4901 0
21.6842 -48.9634 0
21.6847 -44.4888 0
21.7852 -74.2972 0
21.7298 -71.3847 0
19.7585 -74.2192 0
19.4586 -71.3069 0
21.7298 -71.3847 0
21.6922 -68.2195 0
19.4586 -71.3069 0
19.1834 -68.1465 0
19.7585 -74.2192 0
19.4586 -71.3069 0
17.6089 -74.0612 0
17.0806 -71.1524 0
19.4586 -71.3069 0
19.1834 -68.1465 0
17.0806 -71.1524 0
16.5798 -68 0
21.6922 -68.2195 0
21.6718 -64.812 0
19.1834 -68.1465 0
18.9324 -64.7451 0
21.6718 -64.812 0
21.6656 -61.1729 0
18.9324 -64.7451 0
18.7027 -61.111 0
19.1834 -68.1465 0
18.9324 -64.7451 0
16.5798 -68 0
16.1055 -64.6079 0
18.9324 -64.7451 0
18.7027 -61.111 0
16.1055 -64.6079 0
15.6555 -60.9813 0
17.6089 -74.0612 0
17.0806 -71.1524 0
15.2197 -73.8356 0
14.4787 -70.9338 0
17.0806 -71.1524 0
16.5798 -68 0
14.4787 -70.9338 0
13.7627 -67.7908 0
15.2197 -73.8356 0
14.4787 -70.9338 0
12.5106 -73.5448 0
11.5352 -70.6511 0
14.4787 -70.9338 0
13.7627 -67.7908 0
11.5352 -70.6511 0
10.5854 -67.5169 0
16.5798 -68 0
16.1055 -64.6079 0
13.7627 -67.7908 0
13.0719 -64.4083 0
16.1055 -64.6079 0
15.6555 -60.9813 0
13.0719 -64.4083 0
12.4067 -60.7901 0
13.7627 -67.7908 0
13.0719 -64.4083 0
10.5854 -67.5169 0
9.66403 -64.1436 0
13.0719 -64.4083 0
12.4067 -60.7901 0
9.66403 -64.1436 0
8.7735 -60.5351 0
21.6656 -61.1729 0
21.6694 -57.3123 0
18.7027 -61.111 0
18.4905 -57.2523 0
21.6694 -57.3123 0
21.6776 -53.2398 0
18.4905 -57.2523 0
18.2913 -53.1777 0
18.7027 -61.111 0
18.4905 -57.2523 0
15.6555 -60.9813 0
15.2277 -57.1269 0
18.4905 -57.2523 0
18.2913 -53.1777 0
15.2277 -57.1269 0
14.8197 -53.0523 0
21.6776 -53.2398 0
21.6842 -48.9634 0
18.2913 -53.1777 0
18.1001 -48.8967 0
21.6842 -48.9634 0
21.6847 -44.4888 0
18.1001 -48.8967 0
17.9102 -44.4181 0
18.2913 -53.1777 0
18.1001 -48.8967 0
14.8197 -53.0523 0
14.428 -48.7673 0
18.1001 -48.8967 0
17.9102 -44.4181 0
14.428 -48.7673 0
14.0478 -44.2839 0
15.6555 -60.9813 0
15.2277 -57.1269 0
12.4067 -60.7901 0
11.7669 -56.942 0
15.2277 -57.1269 0
14.8197 -53.0523 0
11.7669 -56.942 0
11.1518 -52.8714 0
12.4067 -60.7901 0
11.7669 -56.942 0
8.7735 -60.5351 0
7.91657 -56.6968 0
11.7669 -56.942 0
11.1518 -52.8714 0
7.91657 -56.6968 0
7.0967 -52.6364 0
14.8197 -53.0523 0
14.428 -48.7673 0
11.1518 -52.8714 0
10.56 -48.589 0
14.428 -48.7673 0
14.0478 -44.2839 0
10.56 -48.589 0
9.98917 -44.1099 0
11.1518 -52.8714 0
10.56 -48.589 0
7.0967 -52.6364 0
6.31907 -48.3646 0
10.56 -48.589 0
9.98917 -44.1099 0
6.31907 -48.3646 0
5.59185 -43.8975 0
21.5345 -85.4433 0
22.7886 -85.2417 0
21.5345 -85.8036 0
22.4113 -85.6001 0
22.7886 -85.2417 0
24.0294 -84.6431 0
22.4113 -85.6001 0
23.2838 -84.9962 0
21.5345 -85.8036 0
22.4113 -85.6001 0
21.5345 -86.1437 0
22.165 -85.9284 0
22.4113 -85.6001 0
23.2838 -84.9962 0
22.165 -85.9284 0
22.77 -85.2964 0
24.0294 -84.6431 0
25.2462 -83.6638 0
23.2838 -84.9962 0
24.1465 -84.0089 0
25.2462 -83.6638 0
26.4326 -82.3235 0
24.1465 -84.0089 0
24.9927 -82.659 0
23.2838 -84.9962 0
24.1465 -84.0089 0
22.77 -85.2964 0
23.3398 -84.28 0
24.1465 -84.0089 0
24.9927 -82.659 0
23.3398 -84.28 0
23.8794 -82.9079 0
21.5345 -86.1437 0
22.165 -85.9284 0
21.5345 -86.5759 0
21.9788 -86.338 0
22.165 -85.9284 0
22.77 -85.2964 0
21.9788 -86.338 0
22.3759 -85.6479 0
21.5345 -86.5759 0
21.9788 -86.338 0
21.5345 -87.0219 0
21.7824 -86.7561 0
21.9788 -86.338 0
22.3759 -85.6479 0
21.7824 -86.7561 0
21.9663 -85.9927 0
22.77 -85.2964 0
23.3398 -84.28 0
22.3759 -85.6479 0
22.7045 -84.5591 0
23.3398 -84.28 0
23.8794 -82.9079 0
22.7045 -84.5591 0
22.9723 -83.1197 0
22.3759 -85.6479 0
22.7045 -84.5591 0
21.9663 -85.9927 0
22.0592 -84.8103 0
22.7045 -84.5591 0
22.9723 -83.1197 0
22.0592 -84.8103 0
22.0691 -83.283 0
26.4326 -82.3235 0
27.5847 -80.6401 0
24.9927 -82.659 0
25.8172 -80.9652 0
27.5847 -80.6401 0
28.6999 -78.6297 0
25.8172 -80.9652 0
26.6181 -78.944 0
24.9927 -82.659 0
25.8172 -80.9652 0
23.8794 -82.9079 0
24.3963 -81.1972 0
25.8172 -80.9652 0
26.6181 -78.944 0
24.3963 -81.1972 0
24.8943 -79.1628 0
28.6999 -78.6297 0
29.7763 -76.3085 0
26.6181 -78.944 0
27.3951 -76.612 0
29.7763 -76.3085 0
30.8129 -73.694 0
27.3951 -76.612 0
28.1491 -73.9867 0
26.6181 -78.944 0
27.3951 -76.612 0
24.8943 -79.1628 0
25.3778 -76.819 0
27.3951 -76.612 0
28.1491 -73.9867 0
25.3778 -76.819 0
25.8531 -74.1851 0
23.8794 -82.9079 0
24.3963 -81.1972 0
22.9723 -83.1197 0
23.1959 -81.3599 0
24.3963 -81.1972 0
24.8943 -79.1628 0
23.1959 -81.3599 0
23.3934 -79.2914 0
22.9723 -83.1197 0
23.1959 -81.3599 0
22.0691 -83.283 0
22.0176 -81.4469 0
23.1959 -81.3599 0
23.3934 -79.2914 0
22.0176 -81.4469 0
21.9387 -79.3328 0
24.8943 -79.1628 0
25.3778 -76.819 0
23.3934 -79.2914 0
23.5858 -76.93 0
25.3778 -76.819 0
25.8531 -74.1851 0
23.5858 -76.93 0
23.7816 -74.2878 0
23.3934 -79.2914 0
23.5858 -76.93 0
21.9387 -79.3328 0
21.8568 -76.9484 0
23.5858 -76.93 0
23.7816 -74.2878 0
21.8568 -76.9484 0
21.7852 -74.2972 0
21.5345 -87.0219 0
21.7824 -86.7561 0
21.5345 -87.466 0
21.5637 -87.1549 0
21.7824 -86.7561 0
21.9663 -85.9927 0
21.5637 -87.1549 0
21.5061 -86.2828 0
21.5345 -87.466 0
21.5637 -87.1549 0
21.5345 -87.8934 0
21.2809 -87.5029 0
21.5637 -87.1549 0
21.5061 -86.2828 0
21.2809 -87.5029 0
20.9392 -86.4628 0
21.9663 -85.9927 0
22.0592 -84.8103 0
21.5061 -86.2828 0
21.3372 -84.9834 0
22.0592 -84.8103 0
22.0691 -83.283 0
21.3372 -84.9834 0
21.0733 -83.3482 0
21.5061 -86.2828 0
21.3372 -84.9834 0
20.9392 -86.4628 0
20.4609 -85.0077 0
21.3372 -84.9834 0
21.0733 -83.3482 0
20.4609 -85.0077 0
19.9028 -83.2877 0
21.5345 -87.8934 0
21.2809 -87.5029 0
21.5345 -88.2724 0
20.916 -87.6848 0
21.2809 -87.5029 0
20.9392 -86.4628 0
20.916 -87.6848 0
20.1319 -86.3921 0
21.5345 -88.2724 0
20.916 -87.6848 0
21.5345 -88.2781 0
20.0967 -87.5357 0
20.916 -87.6848 0
20.1319 -86.3921 0
20.0967 -87.5357 0
18.8407 -86.065 0
20.9392 -86.4628 0
20.4609 -85.0077 0
20.1319 -86.3921 0
19.2678 -84.8378 0
20.4609 -85.0077 0
19.9028 -83.2877 0
19.2678 -84.8378 0
18.4166 -83.0843 0
20.1319 -86.3921 0
19.2678 -84.8378 0
18.8407 -86.065 0
17.7111 -84.5198 0
19.2678 -84.8378 0
18.4166 -83.0843 0
17.7111 -84.5198 0
16.6264 -82.7678 0
22.0691 -83.283 0
22.0176 -81.4469 0
21.0733 -83.3482 0
20.755 -81.4428 0
22.0176 -81.4469 0
21.9387 -79.3328 0
20.755 -81.4428 0
20.417 -79.2857 0
21.0733 -83.3482 0
20.755 -81.4428 0
19.9028 -83.2877 0
19.3208 -81.3333 0
20.755 -81.4428 0
20.417 -79.2857 0
19.3208 -81.3333 0
18.7365 -79.1474 0
21.9387 -79.3328 0
21.8568 -76.9484 0
20.417 -79.2857 0
20.0804 -76.8788 0
21.8568 -76.9484 0
21.7852 -74.2972 0
20.0804 -76.8788 0
19.7585 -74.2192 0
20.417 -79.2857 0
20.0804 -76.8788 0
18.7365 -79.1474 0
18.1629 -76.7253 0
20.0804 -76.8788 0
19.7585 -74.2192 0
18.1629 -76.7253 0
17.6089 -74.0612 0
19.9028 -83.2877 0
19.3208 -81.3333 0
18.4166 -83.0843 0
17.5845 -81.1146 0
19.3208 -81.3333 0
18.7365 -79.1474 0
17.5845 -81.1146 0
16.7736 -78.9214 0
18.4166 -83.0843 0
17.5845 -81.1146 0
16.6264 -82.7678 0
15.5671 -80.8037 0
17.5845 -81.1146 0
16.7736 -78.9214 0
15.5671 -80.8037 0
14.5283 -78.6165 0
18.7365 -79.1474 0
18.1629 -76.7253 0
16.7736 -78.9214 0
15.9849 -76.497 0
18.1629 -76.7253 0
17.6089 -74.0612 0
15.9849 -76.497 0
15.2197 -73.8356 0
16.7736 -78.9214 0
15.9849 -76.497 0
14.5283 -78.6165 0
13.5091 -76.1988 0
15.9849 -76.497 0
15.2197 -73.8356 0
13.5091 -76.1988 0
12.5106 -73.5448 0
12.2562 -73.694 0
13.2928 -76.3085 0
14.92 -73.9867 0
15.674 -76.612 0
13.2928 -76.3085 0
14.3692 -78.6297 0
15.674 -76.612 0
16.451 -78.944 0
14.92 -73.9867 0
15.674 -76.612 0
17.216 -74.1851 0
17.6913 -76.819 0
15.674 -76.612 0
16.451 -78.944 0
17.6913 -76.819 0
18.1748 -79.1628 0
14.3692 -78.6297 0
15.4844 -80.6401 0
16.451 -78.944 0
17.2519 -80.9652 0
15.4844 -80.6401 0
16.6365 -82.3235 0
17.2519 -80.9652 0
18.0763 -82.659 0
16.451 -78.944 0
17.2519 -80.9652 0
18.1748 -79.1628 0
18.6728 -81.1972 0
17.2519 -80.9652 0
18.0763 -82.659 0
18.6728 -81.1972 0
19.1897 -82.9079 0
17.216 -74.1851 0
17.6913 -76.819 0
19.2875 -74.2878 0
19.4833 -76.93 0
17.6913 -76.819 0
18.1748 -79.1628 0
19.4833 -76.93 0
19.6757 -79.2914 0
19.2875 -74.2878 0
19.4833 -76.93 0
21.2839 -74.2972 0
21.2123 -76.9484 0
19.4833 -76.93 0
19.6757 -79.2914 0
21.2123 -76.9484 0
21.1304 -79.3328 0
18.1748 -79.1628 0
18.6728 -81.1972 0
19.6757 -79.2914 0
19.8732 -81.3599 0
18.6728 -81.1972 0
19.1897 -82.9079 0
19.8732 -81.3599 0
20.0968 -83.1197 0
19.6757 -79.2914 0
19.8732 -81.3599 0
21.1304 -79.3328 0
21.0515 -81.4469 0
19.8732 -81.3599 0
20.0968 -83.1197 0
21.0515 -81.4469 0
21 -83.283 0
16.6365 -82.3235 0
17.8229 -83.6638 0
18.0763 -82.659 0
18.9226 -84.0089 0
17.8229 -83.6638 0
19.0397 -84.6431 0
18.9226 -84.0089 0
19.7853 -84.9962 0
18.0763 -82.659 0
18.9226 -84.0089 0
19.1897 -82.9079 0
19.7293 -84.28 0
18.9226 -84.0089 0
19.7853 -84.9962 0
19.7293 -84.28 0
20.2991 -85.2964 0
19.0397 -84.6431 0
20.2805 -85.2417 0
19.7853 -84.9962 0
20.6578 -85.6001 0
20.2805 -85.2417 0
21.5345 -85.4433 0
20.6578 -85.6001 0
21.5345 -85.8036 0
19.7853 -84.9962 0
20.6578 -85.6001 0
20.2991 -85.2964 0
20.9041 -85.9284 0
20.6578 -85.6001 0
21.5345 -85.8036 0
20.9041 -85.9284 0
21.5345 -86.1437 0
19.1897 -82.9079 0
19.7293 -84.28 0
20.0968 -83.1197 0
20.3646 -84.5591 0
19.7293 -84.28 0
20.2991 -85.2964 0
20.3646 -84.5591 0
20.6932 -85.6479 0
20.0968 -83.1197 0
20.3646 -84.5591 0
21 -83.283 0
21.0099 -84.8103 0
20.3646 -84.5591 0
20.6932 -85.6479 0
21.0099 -84.8103 0
21.1028 -85.9927 0
20.2991 -85.2964 0
20.9041 -85.9284 0
20.6932 -85.6479 0
21.0903 -86.338 0
20.9041 -85.9284 0
21.5345 -86.1437 0
21.0903 -86.338 0
21.5345 -86.5759 0
20.6932 -85.6479 0
21.0903 -86.338 0
21.1028 -85.9927 0
21.2867 -86.7561 0
21.0903 -86.338 0
21.5345 -86.5759 0
21.2867 -86.7561 0
21.5345 -87.0219 0
21.2839 -74.2972 0
21.2123 -76.9484 0
23.3106 -74.2192 0
22.9887 -76.8788 0
21.2123 -76.9484 0
21.1304 -79.3328 0
22.9887 -76.8788 0
22.6521 -79.2857 0
23.3106 -74.2192 0
22.9887 -76.8788 0
25.4602 -74.0612 0
24.9062 -76.7253 0
22.9887 -76.8788 0
22.6521 -79.2857 0
24.9062 -76.7253 0
24.3325 -79.1474 0
21.1304 -79.3328 0
21.0515 -81.4469 0
22.6521 -79.2857 0
22.3141 -81.4428 0
21.0515 -81.4469 0
21 -83.283 0
22.3141 -81.4428 0
21.9958 -83.3482 0
22.6521 -79.2857 0
22.3141 -81.4428 0
24.3325 -79.1474 0
23.7483 -81.3333 0
22.3141 -81.4428 0
21.9958 -83.3482 0
23.7483 -81.3333 0
23.1663 -83.2877 0
25.4602 -74.0612 0
24.9062 -76.7253 0
27.8494 -73.8356 0
27.0842 -76.497 0
24.9062 -76.7253 0
24.3325 -79.1474 0
27.0842 -76.497 0
26.2955 -78.9214 0
27.8494 -73.8356 0
27.0842 -76.497 0
30.5585 -73.5448 0
29.56 -76.1988 0
27.0842 -76.497 0
26.2955 -78.9214 0
29.56 -76.1988 0
28.5408 -78.6165 0
24.3325 -79.1474 0
23.7483 -81.3333 0
26.2955 -78.9214 0
25.4846 -81.1146 0
23.7483 -81.3333 0
23.1663 -83.2877 0
25.4846 -81.1146 0
24.6525 -83.0843 0
26.2955 -78.9214 0
25.4846 -81.1146 0
28.5408 -78.6165 0
27.502 -80.8037 0
25.4846 -81.1146 0
24.6525 -83.0843 0
27.502 -80.8037 0
26.4427 -82.7678 0
21 -83.283 0
21.0099 -84.8103 0
21.9958 -83.3482 0
21.7319 -84.9834 0
21.0099 -84.8103 0
21.1028 -85.9927 0
21.7319 -84.9834 0
21.563 -86.2828 0
21.9958 -83.3482 0
21.7319 -84.9834 0
23.1663 -83.2877 0
22.6082 -85.0077 0
21.7319 -84.9834 0
21.563 -86.2828 0
22.6082 -85.0077 0
22.1299 -86.4628 0
21.1028 -85.9927 0
21.2867 -86.7561 0
21.563 -86.2828 0
21.5054 -87.1549 0
21.2867 -86.7561 0
21.5345 -87.0219 0
21.5054 -87.1549 0
21.5345 -87.466 0
21.563 -86.2828 0
21.5054 -87.1549 0
22.1299 -86.4628 0
21.7882 -87.5029 0
21.5054 -87.1549 0
21.5345 -87.466 0
21.7882 -87.5029 0
21.5345 -87.8934 0
23.1663 -83.2877 0
22.6082 -85.0077 0
24.6525 -83.0843 0
23.8013 -84.8378 0
22.6082 -85.0077 0
22.1299 -86.4628 0
23.8013 -84.8378 0
22.9372 -86.3921 0
24.6525 -83.0843 0
23.8013 -84.8378 0
26.4427 -82.7678 0
25.358 -84.5198 0
23.8013 -84.8378 0
22.9372 -86.3921 0
25.358 -84.5198 0
24.2284 -86.065 0
22.1299 -86.4628 0
21.7882 -87.5029 0
22.9372 -86.3921 0
22.1531 -87.6848 0
21.7882 -87.5029 0
21.5345 -87.8934 0
22.1531 -87.6848 0
21.5345 -88.2724 0
22.9372 -86.3921 0
22.1531 -87.6848 0
24.2284 -86.065 0
22.9724 -87.5357 0
22.1531 -87.6848 0
21.5345 -88.2724 0
22.9724 -87.5357 0
21.5345 -88.2781 0
5.2977 -44.0628 0
6.0469 -48.5062 0
9.73193 -44.2752 0
10.2938 -48.7288 0
6.0469 -48.5062 0
6.82934 -52.7567 0
10.2938 -48.7288 0
10.8815 -52.9892 0
9.73193 -44.2752 0
10.2938 -48.7288 0
13.7611 -44.4192 0
14.1397 -48.881 0
10.2938 -48.7288 0
10.8815 -52.9892 0
14.1397 -48.881 0
14.5381 -53.1487 0
6.82934 -52.7567 0
7.64544 -56.8061 0
10.8815 -52.9892 0
11.4945 -57.0485 0
7.64544 -56.8061 0
8.49567 -60.6457 0
11.4945 -57.0485 0
12.1322 -60.8979 0
10.8815 -52.9892 0
11.4945 -57.0485 0
14.5381 -53.1487 0
14.9539 -57.2142 0
11.4945 -57.0485 0
12.1322 -60.8979 0
14.9539 -57.2142 0
15.3852 -61.0699 0
13.7611 -44.4192 0
14.1397 -48.881 0
17.6115 -44.4901 0
17.8026 -48.9594 0
14.1397 -48.881 0
14.5381 -53.1487 0
17.8026 -48.9594 0
18.0062 -53.2319 0
17.6115 -44.4901 0