# vtk DataFile Version 3.0
#This file was generated by the deal.II library on 2020/9/16 at 9:30:24
ASCII
DATASET UNSTRUCTURED_GRID

POINTS 6144 double
5 0 0
5.0625 0 0
5 0.0625 0
5.0625 0.0625 0
5.0625 0 0
5.125 0 0
5.0625 0.0625 0
5.125 0.0625 0
5 0.0625 0
5.0625 0.0625 0
5 0.125 0
5.0625 0.125 0
5.0625 0.0625 0
5.125 0.0625 0
5.0625 0.125 0
5.125 0.125 0
5.125 0 0
5.1875 0 0
5.125 0.0625 0
5.1875 0.0625 0
5.1875 0 0
5.25 0 0
5.1875 0.0625 0
5.25 0.0625 0
5.125 0.0625 0
5.1875 0.0625 0
5.125 0.125 0
5.1875 0.125 0
5.1875 0.0625 0
5.25 0.0625 0
5.1875 0.125 0
5.25 0.125 0
5 0.125 0
5.0625 0.125 0
5 0.1875 0
5.0625 0.1875 0
5.0625 0.125 0
5.125 0.125 0
5.0625 0.1875 0
5.125 0.1875 0
5 0.1875 0
5.0625 0.1875 0
5 0.25 0
5.0625 0.25 0
5.0625 0.1875 0
5.125 0.1875 0
5.0625 0.25 0
5.125 0.25 0
5.125 0.125 0
5.1875 0.125 0
5.125 0.1875 0
5.1875 0.1875 0
5.1875 0.125 0
5.25 0.125 0
5.1875 0.1875 0
5.25 0.1875 0
5.125 0.1875 0
5.1875 0.1875 0
5.125 0.25 0
5.1875 0.25 0
5.1875 0.1875 0
5.25 0.1875 0
5.1875 0.25 0
5.25 0.25 0
5.25 0 0
5.3125 0 0
5.25 0.0625 0
5.3125 0.0625 0
5.3125 0 0
5.375 0 0
5.3125 0.0625 0
5.375 0.0625 0
5.25 0.0625 0
5.3125 0.0625 0
5.25 0.125 0
5.3125 0.125 0
5.3125 0.0625 0
5.375 0.0625 0
5.3125 0.125 0
5.375 0.125 0
5.375 0 0
5.4375 0 0
5.375 0.0625 0
5.4375 0.0625 0
5.4375 0 0
5.5 0 0
5.4375 0.0625 0
5.5 0.0625 0
5.375 0.0625 0
5.4375 0.0625 0
5.375 0.125 0
5.4375 0.125 0
5.4375 0.0625 0
5.5 0.0625 0
5.4375 0.125 0
5.5 0.125 0
5.25 0.125 0
5.3125 0.125 0
5.25 0.1875 0
5.3125 0.1875 0
5.3125 0.125 0
5.375 0.125 0
5.3125 0.1875 0
5.375 0.1875 0
5.25 0.1875 0
5.3125 0.1875 0
5.25 0.25 0
5.3125 0.25 0
5.3125 0.1875 0
5.375 0.1875 0
5.3125 0.25 0
5.375 0.25 0
5.375 0.125 0
5.4375 0.125 0
5.375 0.1875 0
5.4375 0.1875 0
5.4375 0.125 0
5.5 0.125 0
5.4375 0.1875 0
5.5 0.1875 0
5.375 0.1875 0
5.4375 0.1875 0
5.375 0.25 0
5.4375 0.25 0
5.4375 0.1875 0
5.5 0.1875 0
5.4375 0.25 0
5.5 0.25 0
5 0.25 0
5.0625 0.25 0
5 0.3125 0
5.0625 0.3125 0
5.0625 0.25 0
5.125 0.25 0
5.0625 0.3125 0
5.125 0.3125 0
5 0.3125 0
5.0625 0.3125 0
5 0.375 0
5.0625 0.375 0
5.0625 0.3125 0
5.125 0.3125 0
5.0625 0.375 0
5.125 0.375 0
5.125 0.25 0
5.1875 0.25 0
5.125 0.3125 0
5.1875 0.3125 0
5.1875 0.25 0
5.25 0.25 0
5.1875 0.3125 0
5.25 0.3125 0
5.125 0.3125 0
5.1875 0.3125 0
5.125 0.375 0
5.1875 0.375 0
5.1875 0.3125 0
5.25 0.3125 0
5.1875 0.375 0
5.25 0.375 0
5 0.375 0
5.0625 0.375 0
5 0.4375 0
5.0625 0.4375 0
5.0625 0.375 0
5.125 0.375 0
5.0625 0.4375 0
5.125 0.4375 0
5 0.4375 0
5.0625 0.4375 0
5 0.5 0
5.0625 0.5 0
5.0625 0.4375 0
5.125 0.4375 0
5.0625 0.5 0
5.125 0.5 0
5.125 0.375 0
5.1875 0.375 0
5.125 0.4375 0
5.1875 0.4375 0
5.1875 0.375 0
5.25 0.375 0
5.1875 0.4375 0
5.25 0.4375 0
5.125 0.4375 0
5.1875 0.4375 0
5.125 0.5 0
5.1875 0.5 0
5.1875 0.4375 0
5.25 0.4375 0
5.1875 0.5 0
5.25 0.5 0
5.25 0.25 0
5.3125 0.25 0
5.25 0.3125 0
5.3125 0.3125 0
5.3125 0.25 0
5.375 0.25 0
5.3125 0.3125 0
5.375 0.3125 0
5.25 0.3125 0
5.3125 0.3125 0
5.25 0.375 0
5.3125 0.375 0
5.3125 0.3125 0
5.375 0.3125 0
5.3125 0.375 0
5.375 0.375 0
5.375 0.25 0
5.4375 0.25 0
5.375 0.3125 0
5.4375 0.3125 0
5.4375 0.25 0
5.5 0.25 0
5.4375 0.3125 0
5.5 0.3125 0
5.375 0.3125 0
5.4375 0.3125 0
5.375 0.375 0
5.4375 0.375 0
5.4375 0.3125 0
5.5 0.3125 0
5.4375 0.375 0
5.5 0.375 0
5.25 0.375 0
5.3125 0.375 0
5.25 0.4375 0
5.3125 0.4375 0
5.3125 0.375 0
5.375 0.375 0
5.3125 0.4375 0
5.375 0.4375 0
5.25 0.4375 0
5.3125 0.4375 0
5.25 0.5 0
5.3125 0.5 0
5.3125 0.4375 0
5.375 0.4375 0
5.3125 0.5 0
5.375 0.5 0
5.375 0.375 0
5.4375 0.375 0
5.375 0.4375 0
5.4375 0.4375 0
5.4375 0.375 0
5.5 0.375 0
5.4375 0.4375 0
5.5 0.4375 0
5.375 0.4375 0
5.4375 0.4375 0
5.375 0.5 0
5.4375 0.5 0
5.4375 0.4375 0
5.5 0.4375 0
5.4375 0.5 0
5.5 0.5 0
5.5 0 0
5.5625 0 0
5.5 0.0625 0
5.5625 0.0625 0
5.5625 0 0
5.625 0 0
5.5625 0.0625 0
5.625 0.0625 0
5.5 0.0625 0
5.5625 0.0625 0
5.5 0.125 0
5.5625 0.125 0
5.5625 0.0625 0
5.625 0.0625 0
5.5625 0.125 0
5.625 0.125 0
5.625 0 0
5.6875 0 0
5.625 0.0625 0
5.6875 0.0625 0
5.6875 0 0
5.75 0 0
5.6875 0.0625 0
5.75 0.0625 0
5.625 0.0625 0
5.6875 0.0625 0
5.625 0.125 0
5.6875 0.125 0
5.6875 0.0625 0
5.75 0.0625 0
5.6875 0.125 0
5.75 0.125 0
5.5 0.125 0
5.5625 0.125 0
5.5 0.1875 0
5.5625 0.1875 0
5.5625 0.125 0
5.625 0.125 0
5.5625 0.1875 0
5.625 0.1875 0
5.5 0.1875 0
5.5625 0.1875 0
5.5 0.25 0
5.5625 0.25 0
5.5625 0.1875 0
5.625 0.1875 0
5.5625 0.25 0
5.625 0.25 0
5.625 0.125 0
5.6875 0.125 0
5.625 0.1875 0
5.6875 0.1875 0
5.6875 0.125 0
5.75 0.125 0
5.6875 0.1875 0
5.75 0.1875 0
5.625 0.1875 0
5.6875 0.1875 0
5.625 0.25 0
5.6875 0.25 0
5.6875 0.1875 0
5.75 0.1875 0
5.6875 0.25 0
5.75 0.25 0
5.75 0 0
5.8125 0 0
5.75 0.0625 0
5.8125 0.0625 0
5.8125 0 0
5.875 0 0
5.8125 0.0625 0
5.875 0.0625 0
5.75 0.0625 0
5.8125 0.0625 0
5.75 0.125 0
5.8125 0.125 0
5.8125 0.0625 0
5.875 0.0625 0
5.8125 0.125 0
5.875 0.125 0
5.875 0 0
5.9375 0 0
5.875 0.0625 0
5.9375 0.0625 0
5.9375 0 0
6 0 0
5.9375 0.0625 0
6 0.0625 0
5.875 0.0625 0
5.9375 0.0625 0
5.875 0.125 0
5.9375 0.125 0
5.9375 0.0625 0
6 0.0625 0
5.9375 0.125 0
6 0.125 0
5.75 0.125 0
5.8125 0.125 0
5.75 0.1875 0
5.8125 0.1875 0
5.8125 0.125 0
5.875 0.125 0
5.8125 0.1875 0
5.875 0.1875 0
5.75 0.1875 0
5.8125 0.1875 0
5.75 0.25 0
5.8125 0.25 0
5.8125 0.1875 0
5.875 0.1875 0
5.8125 0.25 0
5.875 0.25 0
5.875 0.125 0
5.9375 0.125 0
5.875 0.1875 0
5.9375 0.1875 0
5.9375 0.125 0
6 0.125 0
5.9375 0.1875 0
6 0.1875 0
5.875 0.1875 0
5.9375 0.1875 0
5.875 0.25 0
5.9375 0.25 0
5.9375 0.1875 0
6 0.1875 0
5.9375 0.25 0
6 0.25 0
5.5 0.25 0
5.5625 0.25 0
5.5 0.3125 0
5.5625 0.3125 0
5.5625 0.25 0
5.625 0.25 0
5.5625 0.3125 0
5.625 0.3125 0
5.5 0.3125 0
5.5625 0.3125 0
5.5 0.375 0
5.5625 0.375 0
5.5625 0.3125 0
5.625 0.3125 0
5.5625 0.375 0
5.625 0.375 0
5.625 0.25 0
5.6875 0.25 0
5.625 0.3125 0
5.6875 0.3125 0
5.6875 0.25 0
5.75 0.25 0
5.6875 0.3125 0
5.75 0.3125 0
5.625 0.3125 0
5.6875 0.3125 0
5.625 0.375 0
5.6875 0.375 0
5.6875 0.3125 0
5.75 0.3125 0
5.6875 0.375 0
5.75 0.375 0
5.5 0.375 0
5.5625 0.375 0
5.5 0.4375 0
5.5625 0.4375 0
5.5625 0.375 0
5.625 0.375 0
5.5625 0.4375 0
5.625 0.4375 0
5.5 0.4375 0
5.5625 0.4375 0
5.5 0.5 0
5.5625 0.5 0
5.5625 0.4375 0
5.625 0.4375 0
5.5625 0.5 0
5.625 0.5 0
5.625 0.375 0
5.6875 0.375 0
5.625 0.4375 0
5.6875 0.4375 0
5.6875 0.375 0
5.75 0.375 0
5.6875 0.4375 0
5.75 0.4375 0
5.625 0.4375 0
5.6875 0.4375 0
5.625 0.5 0
5.6875 0.5 0
5.6875 0.4375 0
5.75 0.4375 0
5.6875 0.5 0
5.75 0.5 0
5.75 0.25 0
5.8125 0.25 0
5.75 0.3125 0
5.8125 0.3125 0
5.8125 0.25 0
5.875 0.25 0
5.8125 0.3125 0
5.875 0.3125 0
5.75 0.3125 0
5.8125 0.3125 0
5.75 0.375 0
5.8125 0.375 0
5.8125 0.3125 0
5.875 0.3125 0
5.8125 0.375 0
5.875 0.375 0
5.875 0.25 0
5.9375 0.25 0
5.875 0.3125 0
5.9375 0.3125 0
5.9375 0.25 0
6 0.25 0
5.9375 0.3125 0
6 0.3125 0
5.875 0.3125 0
5.9375 0.3125 0
5.875 0.375 0
5.9375 0.375 0
5.9375 0.3125 0
6 0.3125 0
5.9375 0.375 0
6 0.375 0
5.75 0.375 0
5.8125 0.375 0
5.75 0.4375 0
5.8125 0.4375 0
5.8125 0.375 0
5.875 0.375 0
5.8125 0.4375 0
5.875 0.4375 0
5.75 0.4375 0
5.8125 0.4375 0
5.75 0.5 0
5.8125 0.5 0
5.8125 0.4375 0
5.875 0.4375 0
5.8125 0.5 0
5.875 0.5 0
5.875 0.375 0
5.9375 0.375 0
5.875 0.4375 0
5.9375 0.4375 0
5.9375 0.375 0
6 0.375 0
5.9375 0.4375 0
6 0.4375 0
5.875 0.4375 0
5.9375 0.4375 0
5.875 0.5 0
5.9375 0.5 0
5.9375 0.4375 0
6 0.4375 0
5.9375 0.5 0
6 0.5 0
5 0.5 0
5.0625 0.5 0
5 0.5625 0
5.0625 0.5625 0
5.0625 0.5 0
5.125 0.5 0
5.0625 0.5625 0
5.125 0.5625 0
5 0.5625 0
5.0625 0.5625 0
5 0.625 0
5.0625 0.625 0
5.0625 0.5625 0
5.125 0.5625 0
5.0625 0.625 0
5.125 0.625 0
5.125 0.5 0
5.1875 0.5 0
5.125 0.5625 0
5.1875 0.5625 0
5.1875 0.5 0
5.25 0.5 0
5.1875 0.5625 0
5.25 0.5625 0
5.125 0.5625 0
5.1875 0.5625 0
5.125 0.625 0
5.1875 0.625 0
5.1875 0.5625 0
5.25 0.5625 0
5.1875 0.625 0
5.25 0.625 0
5 0.625 0
5.0625 0.625 0
5 0.6875 0
5.0625 0.6875 0
5.0625 0.625 0
5.125 0.625 0
5.0625 0.6875 0
5.125 0.6875 0
5 0.6875 0
5.0625 0.6875 0
5 0.75 0
5.0625 0.75 0
5.0625 0.6875 0
5.125 0.6875 0
5.0625 0.75 0
5.125 0.75 0
5.125 0.625 0
5.1875 0.625 0
5.125 0.6875 0
5.1875 0.6875 0
5.1875 0.625 0
5.25 0.625 0
5.1875 0.6875 0
5.25 0.6875 0
5.125 0.6875 0
5.1875 0.6875 0
5.125 0.75 0
5.1875 0.75 0
5.1875 0.6875 0
5.25 0.6875 0
5.1875 0.75 0
5.25 0.75 0
5.25 0.5 0
5.3125 0.5 0
5.25 0.5625 0
5.3125 0.5625 0
5.3125 0.5 0
5.375 0.5 0
5.3125 0.5625 0
5.375 0.5625 0
5.25 0.5625 0
5.3125 0.5625 0
5.25 0.625 0
5.3125 0.625 0
5.3125 0.5625 0
5.375 0.5625 0
5.3125 0.625 0
5.375 0.625 0
5.375 0.5 0
5.4375 0.5 0
5.375 0.5625 0
5.4375 0.5625 0
5.4375 0.5 0
5.5 0.5 0
5.4375 0.5625 0
5.5 0.5625 0
5.375 0.5625 0
5.4375 0.5625 0
5.375 0.625 0
5.4375 0.625 0
5.4375 0.5625 0
5.5 0.5625 0
5.4375 0.625 0
5.5 0.625 0
5.25 0.625 0
5.3125 0.625 0
5.25 0.6875 0
5.3125 0.6875 0
5.3125 0.625 0
5.375 0.625 0
5.3125 0.6875 0
5.375 0.6875 0
5.25 0.6875 0
5.3125 0.6875 0
5.25 0.75 0
5.3125 0.75 0
5.3125 0.6875 0
5.375 0.6875 0
5.3125 0.75 0
5.375 0.75 0
5.375 0.625 0
5.4375 0.625 0
5.375 0.6875 0
5.4375 0.6875 0
5.4375 0.625 0
5.5 0.625 0
5.4375 0.6875 0
5.5 0.6875 0
5.375 0.6875 0
5.4375 0.6875 0
5.375 0.75 0
5.4375 0.75 0
5.4375 0.6875 0
5.5 0.6875 0
5.4375 0.75 0
5.5 0.75 0
5 0.75 0
5.0625 0.75 0
5 0.8125 0
5.0625 0.8125 0
5.0625 0.75 0
5.125 0.75 0
5.0625 0.8125 0
5.125 0.8125 0
5 0.8125 0
5.0625 0.8125 0
5 0.875 0
5.0625 0.875 0
5.0625 0.8125 0
5.125 0.8125 0
5.0625 0.875 0
5.125 0.875 0
5.125 0.75 0
5.1875 0.75 0
5.125 0.8125 0
5.1875 0.8125 0
5.1875 0.75 0
5.25 0.75 0
5.1875 0.8125 0
5.25 0.8125 0
5.125 0.8125 0
5.1875 0.8125 0
5.125 0.875 0
5.1875 0.875 0
5.1875 0.8125 0
5.25 0.8125 0
5.1875 0.875 0
5.25 0.875 0
5 0.875 0
5.0625 0.875 0
5 0.9375 0
5.0625 0.9375 0
5.0625 0.875 0
5.125 0.875 0
5.0625 0.9375 0
5.125 0.9375 0
5 0.9375 0
5.0625 0.9375 0
5 1 0
5.0625 1 0
5.0625 0.9375 0
5.125 0.9375 0
5.0625 1 0
5.125 1 0
5.125 0.875 0
5.1875 0.875 0
5.125 0.9375 0
5.1875 0.9375 0
5.1875 0.875 0
5.25 0.875 0
5.1875 0.9375 0
5.25 0.9375 0
5.125 0.9375 0
5.1875 0.9375 0
5.125 1 0
5.1875 1 0
5.1875 0.9375 0
5.25 0.9375 0
5.1875 1 0
[...]
POINT_DATA 6144
VECTORS displacements double
39.7287 -43.1279 0
40.0344 -40.7526 0
37.3747 -43.2292 0
37.6713 -40.8507 0
40.0344 -40.7526 0
40.3375 -38.3659 0
37.6713 -40.8507 0
37.955 -38.4624 0
37.3747 -43.2292 0
37.6713 -40.8507 0
35.4355 -43.3003 0
35.6542 -40.9323 0
37.6713 -40.8507 0
37.955 -38.4624 0
35.6542 -40.9323 0
35.8544 -38.5543 0
40.3375 -38.3659 0
40.6414 -35.9509 0
37.955 -38.4624 0
38.2235 -36.0463 0
40.6414 -35.9509 0
40.9403 -33.4977 0
38.2235 -36.0463 0
38.4865 -33.5894 0
37.955 -38.4624 0
38.2235 -36.0463 0
35.8544 -38.5543 0
36.0681 -36.1511 0
38.2235 -36.0463 0
38.4865 -33.5894 0
36.0681 -36.1511 0
36.2745 -33.6833 0
35.4355 -43.3003 0
35.6542 -40.9323 0
33.4556 -43.4086 0
33.6307 -41.0405 0
35.6542 -40.9323 0
35.8544 -38.5543 0
33.6307 -41.0405 0
33.8152 -38.6704 0
33.4556 -43.4086 0
33.6307 -41.0405 0
31.4326 -43.4952 0
31.6153 -41.1572 0
33.6307 -41.0405 0
33.8152 -38.6704 0
31.6153 -41.1572 0
31.7399 -38.7731 0
35.8544 -38.5543 0
36.0681 -36.1511 0
33.8152 -38.6704 0
33.9662 -36.2405 0
36.0681 -36.1511 0
36.2745 -33.6833 0
33.9662 -36.2405 0
34.1237 -33.7943 0
33.8152 -38.6704 0
33.9662 -36.2405 0
31.7399 -38.7731 0
31.8852 -36.3435 0
33.9662 -36.2405 0
34.1237 -33.7943 0
31.8852 -36.3435 0
31.9946 -33.8944 0
40.9403 -33.4977 0
41.2364 -30.9999 0
38.4865 -33.5894 0
38.7361 -31.0926 0
41.2364 -30.9999 0
41.5164 -28.4642 0
38.7361 -31.0926 0
38.993 -28.5486 0
38.4865 -33.5894 0
38.7361 -31.0926 0
36.2745 -33.6833 0
36.4821 -31.1882 0
38.7361 -31.0926 0
38.993 -28.5486 0
36.4821 -31.1882 0
36.6908 -28.6221 0
41.5164 -28.4642 0
41.7956 -25.8946 0
38.993 -28.5486 0
39.2292 -25.9856 0
41.7956 -25.8946 0
42.0471 -23.3071 0
39.2292 -25.9856 0
39.4939 -23.3834 0
38.993 -28.5486 0
39.2292 -25.9856 0
36.6908 -28.6221 0
36.8832 -26.0698 0
39.2292 -25.9856 0
39.4939 -23.3834 0
36.8832 -26.0698 0
37.1463 -23.4503 0
36.2745 -33.6833 0
36.4821 -31.1882 0
34.1237 -33.7943 0
34.2701 -31.2725 0
36.4821 -31.1882 0
36.6908 -28.6221 0
34.2701 -31.2725 0
34.4057 -28.7041 0
34.1237 -33.7943 0
34.2701 -31.2725 0
31.9946 -33.8944 0
32.1113 -31.3574 0
34.2701 -31.2725 0
34.4057 -28.7041 0
32.1113 -31.3574 0
32.3183 -28.7699 0
36.6908 -28.6221 0
36.8832 -26.0698 0
34.4057 -28.7041 0
34.6198 -26.1487 0
36.8832 -26.0698 0
37.1463 -23.4503 0
34.6198 -26.1487 0
34.7315 -23.5206 0
34.4057 -28.7041 0
34.6198 -26.1487 0
32.3183 -28.7699 0
32.4781 -26.4069 0
34.6198 -26.1487 0
34.7315 -23.5206 0
32.4781 -26.4069 0
32.5785 -23.9765 0
31.4326 -43.4952 0
31.6153 -41.1572 0
29.1633 -43.183 0
29.2924 -40.8889 0
31.6153 -41.1572 0
31.7399 -38.7731 0
29.2924 -40.8889 0
29.445 -38.563 0
29.1633 -43.183 0
29.2924 -40.8889 0
27.2325 -43.193 0
27.353 -40.9226 0
29.2924 -40.8889 0
29.445 -38.563 0
27.353 -40.9226 0
27.4589 -38.6279 0
31.7399 -38.7731 0
31.8852 -36.3435 0
29.445 -38.563 0
29.5425 -36.2237 0
31.8852 -36.3435 0
31.9946 -33.8944 0
29.5425 -36.2237 0
29.6708 -33.8191 0
29.445 -38.563 0
29.5425 -36.2237 0
27.4589 -38.6279 0
27.6034 -36.286 0
29.5425 -36.2237 0
29.6708 -33.8191 0
27.6034 -36.286 0
27.6812 -33.9146 0
27.2325 -43.193 0
27.353 -40.9226 0
24.1608 -43.2143 0
25.4506 -40.9397 0
27.353 -40.9226 0
27.4589 -38.6279 0
25.4506 -40.9397 0
25.5451 -38.659 0
24.1608 -43.2143 0
25.4506 -40.9397 0
23.5059 -43.1895 0
23.5633 -40.9734 0
25.4506 -40.9397 0
25.5451 -38.659 0
23.5633 -40.9734 0
23.6574 -38.6579 0
27.4589 -38.6279 0
27.6034 -36.286 0
25.5451 -38.659 0
25.6168 -36.3356 0
27.6034 -36.286 0
27.6812 -33.9146 0
25.6168 -36.3356 0
25.6958 -33.9346 0
25.5451 -38.659 0
25.6168 -36.3356 0
23.6574 -38.6579 0
23.7091 -36.3506 0
25.6168 -36.3356 0
25.6958 -33.9346 0
23.7091 -36.3506 0
23.7295 -33.965 0
31.9946 -33.8944 0
32.1113 -31.3574 0
29.6708 -33.8191 0
29.7621 -31.463 0
32.1113 -31.3574 0
32.3183 -28.7699 0
29.7621 -31.463 0
30.2009 -29.0695 0
29.6708 -33.8191 0
29.7621 -31.463 0
27.6812 -33.9146 0
27.7773 -31.4914 0
29.7621 -31.463 0
30.2009 -29.0695 0
27.7773 -31.4914 0
27.8259 -29.0602 0
32.3183 -28.7699 0
32.4781 -26.4069 0
30.2009 -29.0695 0
30.4294 -26.4554 0
32.4781 -26.4069 0
32.5785 -23.9765 0
30.4294 -26.4554 0
30.4956 -24.023 0
30.2009 -29.0695 0
30.4294 -26.4554 0
27.8259 -29.0602 0
27.9331 -26.5122 0
30.4294 -26.4554 0
30.4956 -24.023 0
27.9331 -26.5122 0
28.0221 -24.063 0
27.6812 -33.9146 0
27.7773 -31.4914 0
25.6958 -33.9346 0
25.7517 -31.5413 0
27.7773 -31.4914 0
27.8259 -29.0602 0
25.7517 -31.5413 0
25.8131 -29.0648 0
25.6958 -33.9346 0
25.7517 -31.5413 0
23.7295 -33.965 0
23.7659 -31.5315 0
25.7517 -31.5413 0
25.8131 -29.0648 0
23.7659 -31.5315 0
23.7793 -29.0857 0
27.8259 -29.0602 0
27.9331 -26.5122 0
25.8131 -29.0648 0
25.8449 -26.5566 0
27.9331 -26.5122 0
28.0221 -24.063 0
25.8449 -26.5566 0
25.8877 -24.0474 0
25.8131 -29.0648 0
25.8449 -26.5566 0
23.7793 -29.0857 0
23.7789 -26.5651 0
25.8449 -26.5566 0
25.8877 -24.0474 0
23.7789 -26.5651 0
23.8014 -24.0681 0
42.0471 -23.3071 0
42.3183 -20.7163 0
39.4939 -23.3834 0
39.7176 -20.8017 0
42.3183 -20.7163 0
42.5756 -18.0993 0
39.7176 -20.8017 0
39.9669 -18.1832 0
39.4939 -23.3834 0
39.7176 -20.8017 0
37.1463 -23.4503 0
37.3404 -20.8408 0
39.7176 -20.8017 0
39.9669 -18.1832 0
37.3404 -20.8408 0
37.5333 -18.2865 0
42.5756 -18.0993 0
42.8495 -15.46 0
39.9669 -18.1832 0
40.198 -15.5406 0
42.8495 -15.46 0
43.1498 -12.7608 0
40.198 -15.5406 0
40.4108 -12.8523 0
39.9669 -18.1832 0
40.198 -15.5406 0
37.5333 -18.2865 0
37.7366 -15.5912 0
40.198 -15.5406 0
40.4108 -12.8523 0
37.7366 -15.5912 0
37.9269 -12.8985 0
37.1463 -23.4503 0
37.3404 -20.8408 0
34.7315 -23.5206 0
35.1124 -20.8725 0
37.3404 -20.8408 0
37.5333 -18.2865 0
35.1124 -20.8725 0
35.2409 -18.313 0
34.7315 -23.5206 0
35.1124 -20.8725 0
32.5785 -23.9765 0
32.885 -21.0474 0
35.1124 -20.8725 0
35.2409 -18.313 0
32.885 -21.0474 0
32.9958 -18.3306 0
37.5333 -18.2865 0
37.7366 -15.5912 0
35.2409 -18.313 0
35.3691 -15.709 0
37.7366 -15.5912 0
37.9269 -12.8985 0
35.3691 -15.709 0
35.4882 -12.8993 0
35.2409 -18.313 0
35.3691 -15.709 0
32.9958 -18.3306 0
33.0824 -15.6998 0
35.3691 -15.709 0
35.4882 -12.8993 0
33.0824 -15.6998 0
33.1559 -13.0495 0
43.1498 -12.7608 0
43.4352 -10.0075 0
40.4108 -12.8523 0
40.648 -10.0762 0
43.4352 -10.0075 0
43.8118 -7.14246 0
40.648 -10.0762 0
40.8049 -7.25934 0
40.4108 -12.8523 0
40.648 -10.0762 0
37.9269 -12.8985 0
38.095 -10.1052 0
40.648 -10.0762 0
40.8049 -7.25934 0
38.095 -10.1052 0
38.2248 -7.24662 0
43.8118 -7.14246 0
44.229 -4.11244 0
40.8049 -7.25934 0
40.8758 -4.04408 0
44.229 -4.11244 0
44.473 0 0
40.8758 -4.04408 0
40.9969 -0.862584 0
40.8049 -7.25934 0
40.8758 -4.04408 0
38.2248 -7.24662 0
38.2158 -4.21044 0
40.8758 -4.04408 0
40.9969 -0.862584 0
38.2158 -4.21044 0
38.3009 -1.42922 0
37.9269 -12.8985 0
38.095 -10.1052 0
35.4882 -12.8993 0
35.5928 -10.1441 0
38.095 -10.1052 0
38.2248 -7.24662 0
35.5928 -10.1441 0
35.655 -7.27902 0
35.4882 -12.8993 0
35.5928 -10.1441 0
33.1559 -13.0495 0
33.2349 -10.1639 0
35.5928 -10.1441 0
35.655 -7.27902 0
33.2349 -10.1639 0
33.237 -7.43154 0
38.2248 -7.24662 0
38.2158 -4.21044 0
35.655 -7.27902 0
35.6971 -4.48221 0
38.2158 -4.21044 0
38.3009 -1.42922 0
35.6971 -4.48221 0
35.7949 -1.80767 0
35.655 -7.27902 0
35.6971 -4.48221 0
33.237 -7.43154 0
33.2684 -4.7389 0
35.6971 -4.48221 0
35.7949 -1.80767 0
33.2684 -4.7389 0
33.3027 -2.07012 0
32.5785 -23.9765 0
32.885 -21.0474 0
30.4956 -24.023 0
30.5681 -21.0818 0
32.885 -21.0474 0
32.9958 -18.3306 0
30.5681 -21.0818 0
30.6284 -18.3589 0
30.4956 -24.023 0
30.5681 -21.0818 0
28.0221 -24.063 0
28.0379 -21.127 0
30.5681 -21.0818 0
30.6284 -18.3589 0
28.0379 -21.127 0
28.4961 -18.3768 0
32.9958 -18.3306 0
33.0824 -15.6998 0
30.6284 -18.3589 0
30.805 -15.6969 0
33.0824 -15.6998 0
33.1559 -13.0495 0
30.805 -15.6969 0
30.8709 -13.0415 0
30.6284 -18.3589 0
30.805 -15.6969 0
28.4961 -18.3768 0
28.5536 -15.7853 0
30.805 -15.6969 0
30.8709 -13.0415 0
28.5536 -15.7853 0
28.5693 -13.0537 0
28.0221 -24.063 0
28.0379 -21.127 0
25.8877 -24.0474 0
25.9769 -21.4074 0
28.0379 -21.127 0
28.4961 -18.3768 0
25.9769 -21.4074 0
26.0875 -18.6637 0
25.8877 -24.0474 0
25.9769 -21.4074 0
23.8014 -24.0681 0
23.7482 -21.4396 0
25.9769 -21.4074 0
26.0875 -18.6637 0
23.7482 -21.4396 0
24.1523 -18.586 0
28.4961 -18.3768 0
28.5536 -15.7853 0
26.0875 -18.6637 0
26.3459 -15.8022 0
28.5536 -15.7853 0
28.5693 -13.0537 0
26.3459 -15.8022 0
26.3077 -13.1554 0
26.0875 -18.6637 0
26.3459 -15.8022 0
24.1523 -18.586 0
24.0852 -15.8876 0
26.3459 -15.8022 0
26.3077 -13.1554 0
24.0852 -15.8876 0
24.0272 -13.2368 0
33.1559 -13.0495 0
33.2349 -10.1639 0
30.8709 -13.0415 0
30.8815 -10.2765 0
33.2349 -10.1639 0
33.237 -7.43154 0
30.8815 -10.2765 0
30.8858 -7.59771 0
30.8709 -13.0415 0
30.8815 -10.2765 0
28.5693 -13.0537 0
28.5576 -10.4102 0
30.8815 -10.2765 0
30.8858 -7.59771 0
28.5576 -10.4102 0
28.5613 -7.7659 0
33.237 -7.43154 0
33.2684 -4.7389 0
30.8858 -7.59771 0
30.9159 -4.96728 0
33.2684 -4.7389 0
33.3027 -2.07012 0
30.9159 -4.96728 0
30.9062 -2.30715 0
30.8858 -7.59771 0
30.9159 -4.96728 0
28.5613 -7.7659 0
28.5513 -5.12916 0
30.9159 -4.96728 0
30.9062 -2.30715 0
28.5513 -5.12916 0
28.6078 -2.63102 0
28.5693 -13.0537 0
28.5576 -10.4102 0
26.3077 -13.1554 0
26.268 -10.5218 0
28.5576 -10.4102 0
28.5613 -7.7659 0
26.268 -10.5218 0
26.2348 -7.89804 0
26.3077 -13.1554 0
26.268 -10.5218 0
24.0272 -13.2368 0
23.9844 -10.6223 0
26.268 -10.5218 0
26.2348 -7.89804 0
23.9844 -10.6223 0
23.9579 -8.02895 0
28.5613 -7.7659 0
28.5513 -5.12916 0
26.2348 -7.89804 0
26.2477 -5.32136 0
28.5513 -5.12916 0
28.6078 -2.63102 0
26.2477 -5.32136 0
26.3114 -2.91171 0
26.2348 -7.89804 0
26.2477 -5.32136 0
23.9579 -8.02895 0
23.9767 -5.51532 0
26.2477 -5.32136 0
26.3114 -2.91171 0
23.9767 -5.51532 0
24.0344 -3.14179 0
23.5059 -43.1895 0
23.5633 -40.9734 0
21.7722 -43.1514 0
21.7688 -40.9455 0
23.5633 -40.9734 0
23.6574 -38.6579 0
21.7688 -40.9455 0
21.7834 -38.6746 0
21.7722 -43.1514 0
21.7688 -40.9455 0
20.0859 -43.0993 0
19.9917 -40.8895 0
21.7688 -40.9455 0
21.7834 -38.6746 0
19.9917 -40.8895 0
19.9176 -38.6348 0
23.6574 -38.6579 0
23.7091 -36.3506 0
21.7834 -38.6746 0
21.765 -36.3182 0
23.7091 -36.3506 0
23.7295 -33.965 0
21.765 -36.3182 0
21.7843 -33.9617 0
21.7834 -38.6746 0
21.765 -36.3182 0
19.9176 -38.6348 0
19.8744 -36.3006 0
21.765 -36.3182 0
21.7843 -33.9617 0
19.8744 -36.3006 0
19.7846 -33.9125 0
20.0859 -43.0993 0
19.9917 -40.8895 0
18.2749 -43.0241 0
18.174 -40.8226 0
19.9917 -40.8895 0
19.9176 -38.6348 0
18.174 -40.8226 0
18.0372 -38.5527 0
18.2749 -43.0241 0
18.174 -40.8226 0
16.4405 -42.9373 0
16.2704 -40.7243 0
18.174 -40.8226 0
18.0372 -38.5527 0
16.2704 -40.7243 0
16.1374 -38.4685 0
19.9176 -38.6348 0
19.8744 -36.3006 0
18.0372 -38.5527 0
17.9318 -36.241 0
19.8744 -36.3006 0
19.7846 -33.9125 0
17.9318 -36.241 0
17.8476 -33.8685 0
18.0372 -38.5527 0
17.9318 -36.241 0
16.1374 -38.4685 0
15.9646 -36.1444 0
17.9318 -36.241 0
17.8476 -33.8685 0
15.9646 -36.1444 0
15.834 -33.7881 0
23.7295 -33.965 0
23.7659 -31.5315 0
21.7843 -33.9617 0
21.7636 -31.5312 0
23.7659 -31.5315 0
23.7793 -29.0857 0
21.7636 -31.5312 0
21.7596 -29.0564 0
21.7843 -33.9617 0
21.7636 -31.5312 0
19.7846 -33.9125 0
19.779 -31.5079 0
21.7636 -31.5312 0
21.7596 -29.0564 0
19.779 -31.5079 0
19.7403 -29.016 0
23.7793 -29.0857 0
23.7789 -26.5651 0
21.7596 -29.0564 0
21.7654 -26.5753 0
23.7789 -26.5651 0
23.8014 -24.0681 0
21.7654 -26.5753 0
21.7543 -24.0332 0
21.7596 -29.0564 0
21.7654 -26.5753 0
19.7403 -29.016 0
19.7092 -26.5329 0
21.7654 -26.5753 0
21.7543 -24.0332 0
19.7092 -26.5329 0
19.7286 -23.9409 0
19.7846 -33.9125 0
19.779 -31.5079 0
17.8476 -33.8685 0
17.6921 -31.4532 0
19.779 -31.5079 0
19.7403 -29.016 0
17.6921 -31.4532 0
17.6543 -28.9574 0
17.8476 -33.8685 0
17.6921 -31.4532 0
15.834 -33.7881 0
15.7258 -31.3588 0
17.6921 -31.4532 0
17.6543 -28.9574 0
15.7258 -31.3588 0
15.5647 -28.9245 0
19.7403 -29.016 0
19.7092 -26.5329 0
17.6543 -28.9574 0
17.5958 -26.482 0
19.7092 -26.5329 0
19.7286 -23.9409 0
17.5958 -26.482 0
17.4739 -23.9436 0
17.6543 -28.9574 0
17.5958 -26.482 0
15.5647 -28.9245 0
15.4044 -26.4633 0
17.5958 -26.482 0
17.4739 -23.9436 0
15.4044 -26.4633 0
15.2649 -23.9541 0
16.4405 -42.9373 0
16.2704 -40.7243 0
14.5384 -42.8321 0
14.3408 -40.6167 0
16.2704 -40.7243 0
16.1374 -38.4685 0
14.3408 -40.6167 0
14.14 -38.3534 0
14.5384 -42.8321 0
14.3408 -40.6167 0
12.5798 -42.7164 0
12.3413 -40.5087 0
14.3408 -40.6167 0
14.14 -38.3534 0
12.3413 -40.5087 0
12.105 -38.2626 0
16.1374 -38.4685 0
15.9646 -36.1444 0
14.14 -38.3534 0
13.968 -36.0457 0
15.9646 -36.1444 0
15.834 -33.7881 0
13.968 -36.0457 0
13.7706 -33.7027 0
14.14 -38.3534 0
13.968 -36.0457 0
12.105 -38.2626 0
11.8687 -35.9737 0
13.968 -36.0457 0
13.7706 -33.7027 0
11.8687 -35.9737 0
11.6534 -33.6415 0
12.5798 -42.7164 0
12.3413 -40.5087 0
10.5263 -42.6241 0
10.2579 -40.4187 0
12.3413 -40.5087 0
12.105 -38.2626 0
10.2579 -40.4187 0
9.99613 -38.1769 0
10.5263 -42.6241 0
10.2579 -40.4187 0
8.40113 -42.5292 0
8.12227 -40.328 0
10.2579 -40.4187 0
9.99613 -38.1769 0
8.12227 -40.328 0
7.87025 -38.0922 0
12.105 -38.2626 0
11.8687 -35.9737 0
9.99613 -38.1769 0
9.74537 -35.9084 0
11.8687 -35.9737 0
11.6534 -33.6415 0
9.74537 -35.9084 0
9.50912 -33.5738 0
9.99613 -38.1769 0
9.74537 -35.9084 0
7.87025 -38.0922 0
7.68835 -35.8878 0
9.74537 -35.9084 0
9.50912 -33.5738 0
7.68835 -35.8878 0
7.42654 -33.552 0
15.834 -33.7881 0
15.7258 -31.3588 0
13.7706 -33.7027 0
13.5796 -31.3244 0
15.7258 -31.3588 0
15.5647 -28.9245 0
13.5796 -31.3244 0
13.4088 -28.8947 0
13.7706 -33.7027 0
13.5796 -31.3244 0
11.6534 -33.6415 0
11.4363 -31.2852 0
13.5796 -31.3244 0
13.4088 -28.8947 0
11.4363 -31.2852 0
11.2293 -28.8545 0
15.5647 -28.9245 0
15.4044 -26.4633 0
13.4088 -28.8947 0
13.2326 -26.4379 0
15.4044 -26.4633 0
15.2649 -23.9541 0
13.2326 -26.4379 0
13.1049 -23.9838 0
13.4088 -28.8947 0
13.2326 -26.4379 0
11.2293 -28.8545 0
11.0994 -26.4534 0
13.2326 -26.4379 0
13.1049 -23.9838 0
11.0994 -26.4534 0
10.9108 -23.9569 0
11.6534 -33.6415 0
11.4363 -31.2852 0
9.50912 -33.5738 0
9.3548 -31.2775 0
11.4363 -31.2852 0
11.2293 -28.8545 0
9.3548 -31.2775 0
9.14296 -28.861 0
9.50912 -33.5738 0
9.3548 -31.2775 0
7.42654 -33.552 0
7.09653 -31.2046 0
9.3548 -31.2775 0
9.14296 -28.861 0
7.09653 -31.2046 0
6.77346 -28.7787 0
11.2293 -28.8545 0
11.0994 -26.4534 0
9.14296 -28.861 0
8.87422 -26.401 0
11.0994 -26.4534 0
10.9108 -23.9569 0
8.87422 -26.401 0
8.62854 -23.8956 0
9.14296 -28.861 0
8.87422 -26.401 0
6.77346 -28.7787 0
6.48428 -26.3104 0
8.87422 -26.401 0
8.62854 -23.8956 0
6.48428 -26.3104 0
6.20476 -23.8141 0
23.8014 -24.0681 0
23.7482 -21.4396 0
21.7543 -24.0332 0
21.9225 -21.2987 0
23.7482 -21.4396 0
24.1523 -18.586 0
21.9225 -21.2987 0
21.8459 -18.6304 0
21.7543 -24.0332 0
21.9225 -21.2987 0
19.7286 -23.9409 0
19.6303 -21.3259 0
21.9225 -21.2987 0
21.8459 -18.6304 0
19.6303 -21.3259 0
19.5467 -18.6848 0
24.1523 -18.586 0
24.0852 -15.8876 0
21.8459 -18.6304 0
21.7802 -15.9606 0
24.0852 -15.8876 0
24.0272 -13.2368 0
21.7802 -15.9606 0
21.7242 -13.3089 0
21.8459 -18.6304 0
21.7802 -15.9606 0
19.5467 -18.6848 0
19.4654 -16.0198 0
21.7802 -15.9606 0
21.7242 -13.3089 0
19.4654 -16.0198 0
19.4161 -13.3891 0
19.7286 -23.9409 0
19.6303 -21.3259 0
17.4739 -23.9436 0
17.3682 -21.3619 0
19.6303 -21.3259 0
19.5467 -18.6848 0
17.3682 -21.3619 0
17.2652 -18.7324 0
17.4739 -23.9436 0
17.3682 -21.3619 0
15.2649 -23.9541 0
15.144 -21.4001 0
17.3682 -21.3619 0
17.2652 -18.7324 0
15.144 -21.4001 0
15.0334 -18.7859 0
19.5467 -18.6848 0
19.4654 -16.0198 0
17.2652 -18.7324 0
17.1872 -16.0908 0
19.4654 -16.0198 0
19.4161 -13.3891 0
17.1872 -16.0908 0
17.1584 -13.4851 0
17.2652 -18.7324 0
17.1872 -16.0908 0
15.0334 -18.7859 0
14.9603 -16.1589 0
17.1872 -16.0908 0
17.1584 -13.4851 0
14.9603 -16.1589 0
14.9126 -13.5638 0
24.0272 -13.2368 0
23.9844 -10.6223 0
21.7242 -13.3089 0
21.688 -10.7128 0
23.9844 -10.6223 0
23.9579 -8.02895 0
21.688 -10.7128 0
21.6843 -8.1644 0
21.7242 -13.3089 0
21.688 -10.7128 0
19.4161 -13.3891 0
19.4084 -10.8191 0
21.688 -10.7128 0
21.6843 -8.1644 0
19.4084 -10.8191 0
19.4177 -8.29357 0
23.9579 -8.02895 0
23.9767 -5.51532 0
21.6843 -8.1644 0
21.7118 -5.68786 0
23.9767 -5.51532 0
24.0344 -3.14179 0
21.7118 -5.68786 0
21.7625 -3.33465 0
21.6843 -8.1644 0
21.7118 -5.68786 0
19.4177 -8.29357 0
19.4467 -5.83902 0
21.7118 -5.68786 0
21.7625 -3.33465 0
19.4467 -5.83902 0
19.4903 -3.49426 0
19.4161 -13.3891 0
19.4084 -10.8191 0
17.1584 -13.4851 0
17.148 -10.9221 0
19.4084 -10.8191 0
19.4177 -8.29357 0
17.148 -10.9221 0
17.1555 -8.40827 0
17.1584 -13.4851 0
17.148 -10.9221 0
14.9126 -13.5638 0
14.8894 -11.0061 0
17.148 -10.9221 0
17.1555 -8.40827 0
14.8894 -11.0061 0
14.8866 -8.49956 0
19.4177 -8.29357 0
19.4467 -5.83902 0
17.1555 -8.40827 0
17.1795 -5.96442 0
19.4467 -5.83902 0
19.4903 -3.49426 0
17.1795 -5.96442 0
17.2129 -3.61933 0
17.1555 -8.40827 0
17.1795 -5.96442 0
14.8866 -8.49956 0
14.9004 -6.05921 0
17.1795 -5.96442 0
17.2129 -3.61933 0
14.9004 -6.05921 0
14.9215 -3.70442 0
15.2649 -23.9541 0
15.144 -21.4001 0
13.1049 -23.9838 0
12.9567 -21.4216 0
15.144 -21.4001 0
15.0334 -18.7859 0
12.9567 -21.4216 0
12.8223 -18.809 0
13.1049 -23.9838 0
12.9567 -21.4216 0
10.9108 -23.9569 0
10.722 -21.3964 0
12.9567 -21.4216 0
12.8223 -18.809 0
10.722 -21.3964 0
10.5632 -18.803 0
15.0334 -18.7859 0
14.9603 -16.1589 0
12.8223 -18.809 0
12.7208 -16.2002 0
14.9603 -16.1589 0
14.9126 -13.5638 0
12.7208 -16.2002 0
12.6524 -13.6127 0
12.8223 -18.809 0
12.7208 -16.2002 0
10.5632 -18.803 0
10.4388 -16.2073 0
12.7208 -16.2002 0
12.6524 -13.6127 0
10.4388 -16.2073 0
10.3483 -13.6308 0
10.9108 -23.9569 0
10.722 -21.3964 0
8.62854 -23.8956 0
8.40959 -21.3462 0
10.722 -21.3964 0
10.5632 -18.803 0
8.40959 -21.3462 0
8.22319 -18.7686 0
8.62854 -23.8956 0
8.40959 -21.3462 0
6.20476 -23.8141 0
5.95388 -21.2768 0
8.40959 -21.3462 0
8.22319 -18.7686 0
5.95388 -21.2768 0
5.74718 -18.7145 0
10.5632 -18.803 0
10.4388 -16.2073 0
8.22319 -18.7686 0
8.07693 -16.1865 0
10.4388 -16.2073 0
10.3483 -13.6308 0
8.07693 -16.1865 0
7.97285 -13.622 0
8.22319 -18.7686 0
8.07693 -16.1865 0
5.74718 -18.7145 0
5.59467 -16.149 0
8.07693 -16.1865 0
7.97285 -13.622 0
5.59467 -16.149 0
5.49835 -13.6002 0
14.9126 -13.5638 0
14.8894 -11.0061 0
12.6524 -13.6127 0
12.6109 -11.0629 0
14.8894 -11.0061 0
14.8866 -8.49956 0
12.6109 -11.0629 0
12.5936 -8.56224 0
12.6524 -13.6127 0
12.6109 -11.0629 0
10.3483 -13.6308 0
10.29 -11.0898 0
12.6109 -11.0629 0
12.5936 -8.56224 0
10.29 -11.0898 0
10.2594 -8.59619 0
14.8866 -8.49956 0
14.9004 -6.05921 0
12.5936 -8.56224 0
12.5951 -6.12142 0
14.9004 -6.05921 0
14.9215 -3.70442 0
12.5951 -6.12142 0
12.604 -3.74868 0
12.5936 -8.56224 0
12.5951 -6.12142 0
10.2594 -8.59619 0
10.25 -6.15465 0
12.5951 -6.12142 0
12.604 -3.74868 0
10.25 -6.15465 0
10.25 -3.7608 0
10.3483 -13.6308 0
10.29 -11.0898 0
7.97285 -13.622 0
7.90762 -11.092 0
10.29 -11.0898 0
10.2594 -8.59619 0
7.90762 -11.092 0
7.87376 -8.60676 0
7.97285 -13.622 0
7.90762 -11.092 0
5.49835 -13.6002 0
5.45118 -11.0833 0
7.90762 -11.092 0
7.87376 -8.60676 0
5.45118 -11.0833 0
5.43882 -8.60698 0
10.2594 -8.59619 0
10.25 -6.15465 0
7.87376 -8.60676 0
7.86123 -6.16703 0
10.25 -6.15465 0
10.25 -3.7608 0
7.86123 -6.16703 0
7.85828 -3.75739 0
7.87376 -8.60676 0
7.86123 -6.16703 0
5.43882 -8.60698 0
5.44233 -6.16993 0
7.86123 -6.16703 0
7.85828 -3.75739 0
5.44233 -6.16993 0
5.44513 -3.7546 0
30.3909 -72.7255 0
30.8447 -71.6708 0
29.3911 -72.8664 0
29.7721 -71.8089 0
30.8447 -71.6708 0
31.2878 -70.5414 0
29.7721 -71.8089 0
30.1445 -70.6761 0
29.3911 -72.8664 0
29.7721 -71.8089 0
28.4375 -72.9843 0
28.7497 -71.9255 0
29.7721 -71.8089 0
30.1445 -70.6761 0
28.7497 -71.9255 0
29.0571 -70.7909 0
31.2878 -70.5414 0
31.7182 -69.3399 0
30.1445 -70.6761 0
30.5069 -69.4702 0
31.7182 -69.3399 0
32.1345 -68.0694 0
30.5069 -69.4702 0
30.8581 -68.1956 0
30.1445 -70.6761 0
30.5069 -69.4702 0
29.0571 -70.7909 0
29.3607 -69.582 0
30.5069 -69.4702 0
30.8581 -68.1956 0
29.3607 -69.582 0
29.6597 -68.303 0
28.4375 -72.9843 0
28.7497 -71.9255 0
27.6304 -73.0844 0
27.8722 -72.0267 0
28.7497 -71.9255 0
29.0571 -70.7909 0
27.8722 -72.0267 0