# vtk DataFile Version 3.0
#This file was generated by the deal.II library on 2020/9/2 at 8:40:43
ASCII
DATASET UNSTRUCTURED_GRID

POINTS 1536 double
5 0 0
5.125 0 0
5 0.125 0
5.125 0.125 0
5.125 0 0
5.25 0 0
5.125 0.125 0
5.25 0.125 0
5 0.125 0
5.125 0.125 0
5 0.25 0
5.125 0.25 0
5.125 0.125 0
5.25 0.125 0
5.125 0.25 0
5.25 0.25 0
5.25 0 0
5.375 0 0
5.25 0.125 0
5.375 0.125 0
5.375 0 0
5.5 0 0
5.375 0.125 0
5.5 0.125 0
5.25 0.125 0
5.375 0.125 0
5.25 0.25 0
5.375 0.25 0
5.375 0.125 0
5.5 0.125 0
5.375 0.25 0
5.5 0.25 0
5 0.25 0
5.125 0.25 0
5 0.375 0
5.125 0.375 0
5.125 0.25 0
5.25 0.25 0
5.125 0.375 0
5.25 0.375 0
5 0.375 0
5.125 0.375 0
5 0.5 0
5.125 0.5 0
5.125 0.375 0
5.25 0.375 0
5.125 0.5 0
5.25 0.5 0
5.25 0.25 0
5.375 0.25 0
5.25 0.375 0
5.375 0.375 0
5.375 0.25 0
5.5 0.25 0
5.375 0.375 0
5.5 0.375 0
5.25 0.375 0
5.375 0.375 0
5.25 0.5 0
5.375 0.5 0
5.375 0.375 0
5.5 0.375 0
5.375 0.5 0
5.5 0.5 0
5.5 0 0
5.625 0 0
5.5 0.125 0
5.625 0.125 0
5.625 0 0
5.75 0 0
5.625 0.125 0
5.75 0.125 0
5.5 0.125 0
5.625 0.125 0
5.5 0.25 0
5.625 0.25 0
5.625 0.125 0
5.75 0.125 0
5.625 0.25 0
5.75 0.25 0
5.75 0 0
5.875 0 0
5.75 0.125 0
5.875 0.125 0
5.875 0 0
6 0 0
5.875 0.125 0
6 0.125 0
5.75 0.125 0
5.875 0.125 0
5.75 0.25 0
5.875 0.25 0
5.875 0.125 0
6 0.125 0
5.875 0.25 0
6 0.25 0
5.5 0.25 0
5.625 0.25 0
5.5 0.375 0
5.625 0.375 0
5.625 0.25 0
5.75 0.25 0
5.625 0.375 0
5.75 0.375 0
5.5 0.375 0
5.625 0.375 0
5.5 0.5 0
5.625 0.5 0
5.625 0.375 0
5.75 0.375 0
5.625 0.5 0
5.75 0.5 0
5.75 0.25 0
5.875 0.25 0
5.75 0.375 0
5.875 0.375 0
5.875 0.25 0
6 0.25 0
5.875 0.375 0
6 0.375 0
5.75 0.375 0
5.875 0.375 0
5.75 0.5 0
5.875 0.5 0
5.875 0.375 0
6 0.375 0
5.875 0.5 0
6 0.5 0
5 0.5 0
5.125 0.5 0
5 0.625 0
5.125 0.625 0
5.125 0.5 0
5.25 0.5 0
5.125 0.625 0
5.25 0.625 0
5 0.625 0
5.125 0.625 0
5 0.75 0
5.125 0.75 0
5.125 0.625 0
5.25 0.625 0
5.125 0.75 0
5.25 0.75 0
5.25 0.5 0
5.375 0.5 0
5.25 0.625 0
5.375 0.625 0
5.375 0.5 0
5.5 0.5 0
5.375 0.625 0
5.5 0.625 0
5.25 0.625 0
5.375 0.625 0
5.25 0.75 0
5.375 0.75 0
5.375 0.625 0
5.5 0.625 0
5.375 0.75 0
5.5 0.75 0
5 0.75 0
5.125 0.75 0
5 0.875 0
5.125 0.875 0
5.125 0.75 0
5.25 0.75 0
5.125 0.875 0
5.25 0.875 0
5 0.875 0
5.125 0.875 0
5 1 0
5.125 1 0
5.125 0.875 0
5.25 0.875 0
5.125 1 0
5.25 1 0
5.25 0.75 0
5.375 0.75 0
5.25 0.875 0
5.375 0.875 0
5.375 0.75 0
5.5 0.75 0
5.375 0.875 0
5.5 0.875 0
5.25 0.875 0
5.375 0.875 0
5.25 1 0
5.375 1 0
5.375 0.875 0
5.5 0.875 0
5.375 1 0
5.5 1 0
5.5 0.5 0
5.625 0.5 0
5.5 0.625 0
5.625 0.625 0
5.625 0.5 0
5.75 0.5 0
5.625 0.625 0
5.75 0.625 0
5.5 0.625 0
5.625 0.625 0
5.5 0.75 0
5.625 0.75 0
5.625 0.625 0
5.75 0.625 0
5.625 0.75 0
5.75 0.75 0
5.75 0.5 0
5.875 0.5 0
5.75 0.625 0
5.875 0.625 0
5.875 0.5 0
6 0.5 0
5.875 0.625 0
6 0.625 0
5.75 0.625 0
5.875 0.625 0
5.75 0.75 0
5.875 0.75 0
5.875 0.625 0
6 0.625 0
5.875 0.75 0
6 0.75 0
5.5 0.75 0
5.625 0.75 0
5.5 0.875 0
5.625 0.875 0
5.625 0.75 0
5.75 0.75 0
5.625 0.875 0
5.75 0.875 0
5.5 0.875 0
5.625 0.875 0
5.5 1 0
5.625 1 0
5.625 0.875 0
5.75 0.875 0
5.625 1 0
5.75 1 0
5.75 0.75 0
5.875 0.75 0
5.75 0.875 0
5.875 0.875 0
5.875 0.75 0
6 0.75 0
5.875 0.875 0
6 0.875 0
5.75 0.875 0
5.875 0.875 0
5.75 1 0
5.875 1 0
5.875 0.875 0
6 0.875 0
5.875 1 0
6 1 0
4 0 0
4.125 0 0
4 0.125 0
4.125 0.125 0
4.125 0 0
4.25 0 0
4.125 0.125 0
4.25 0.125 0
4 0.125 0
4.125 0.125 0
4 0.25 0
4.125 0.25 0
4.125 0.125 0
4.25 0.125 0
4.125 0.25 0
4.25 0.25 0
4.25 0 0
4.375 0 0
4.25 0.125 0
4.375 0.125 0
4.375 0 0
4.5 0 0
4.375 0.125 0
4.5 0.125 0
4.25 0.125 0
4.375 0.125 0
4.25 0.25 0
4.375 0.25 0
4.375 0.125 0
4.5 0.125 0
4.375 0.25 0
4.5 0.25 0
4 0.25 0
4.125 0.25 0
4 0.375 0
4.125 0.375 0
4.125 0.25 0
4.25 0.25 0
4.125 0.375 0
4.25 0.375 0
4 0.375 0
4.125 0.375 0
4 0.5 0
4.125 0.5 0
4.125 0.375 0
4.25 0.375 0
4.125 0.5 0
4.25 0.5 0
4.25 0.25 0
4.375 0.25 0
4.25 0.375 0
4.375 0.375 0
4.375 0.25 0
4.5 0.25 0
4.375 0.375 0
4.5 0.375 0
4.25 0.375 0
4.375 0.375 0
4.25 0.5 0
4.375 0.5 0
4.375 0.375 0
4.5 0.375 0
4.375 0.5 0
4.5 0.5 0
4.5 0 0
4.625 0 0
4.5 0.125 0
4.625 0.125 0
4.625 0 0
4.75 0 0
4.625 0.125 0
4.75 0.125 0
4.5 0.125 0
4.625 0.125 0
4.5 0.25 0
4.625 0.25 0
4.625 0.125 0
4.75 0.125 0
4.625 0.25 0
4.75 0.25 0
4.75 0 0
4.875 0 0
4.75 0.125 0
4.875 0.125 0
4.875 0 0
5 0 0
4.875 0.125 0
5 0.125 0
4.75 0.125 0
4.875 0.125 0
4.75 0.25 0
4.875 0.25 0
4.875 0.125 0
5 0.125 0
4.875 0.25 0
5 0.25 0
4.5 0.25 0
4.625 0.25 0
4.5 0.375 0
4.625 0.375 0
4.625 0.25 0
4.75 0.25 0
4.625 0.375 0
4.75 0.375 0
4.5 0.375 0
4.625 0.375 0
4.5 0.5 0
4.625 0.5 0
4.625 0.375 0
4.75 0.375 0
4.625 0.5 0
4.75 0.5 0
4.75 0.25 0
4.875 0.25 0
4.75 0.375 0
4.875 0.375 0
4.875 0.25 0
5 0.25 0
4.875 0.375 0
5 0.375 0
4.75 0.375 0
4.875 0.375 0
4.75 0.5 0
4.875 0.5 0
4.875 0.375 0
5 0.375 0
4.875 0.5 0
5 0.5 0
4 0.5 0
4.125 0.5 0
4 0.625 0
4.125 0.625 0
4.125 0.5 0
4.25 0.5 0
4.125 0.625 0
4.25 0.625 0
4 0.625 0
4.125 0.625 0
4 0.75 0
4.125 0.75 0
4.125 0.625 0
4.25 0.625 0
4.125 0.75 0
4.25 0.75 0
4.25 0.5 0
4.375 0.5 0
4.25 0.625 0
4.375 0.625 0
4.375 0.5 0
4.5 0.5 0
4.375 0.625 0
4.5 0.625 0
4.25 0.625 0
4.375 0.625 0
4.25 0.75 0
4.375 0.75 0
4.375 0.625 0
4.5 0.625 0
4.375 0.75 0
4.5 0.75 0
4 0.75 0
4.125 0.75 0
4 0.875 0
4.125 0.875 0
4.125 0.75 0
4.25 0.75 0
4.125 0.875 0
4.25 0.875 0
4 0.875 0
4.125 0.875 0
4 1 0
4.125 1 0
4.125 0.875 0
4.25 0.875 0
4.125 1 0
4.25 1 0
4.25 0.75 0
4.375 0.75 0
4.25 0.875 0
4.375 0.875 0
4.375 0.75 0
4.5 0.75 0
4.375 0.875 0
4.5 0.875 0
4.25 0.875 0
4.375 0.875 0
4.25 1 0
4.375 1 0
4.375 0.875 0
4.5 0.875 0
4.375 1 0
4.5 1 0
4.5 0.5 0
4.625 0.5 0
4.5 0.625 0
4.625 0.625 0
4.625 0.5 0
4.75 0.5 0
4.625 0.625 0
4.75 0.625 0
4.5 0.625 0
4.625 0.625 0
4.5 0.75 0
4.625 0.75 0
4.625 0.625 0
4.75 0.625 0
4.625 0.75 0
4.75 0.75 0
4.75 0.5 0
4.875 0.5 0
4.75 0.625 0
4.875 0.625 0
4.875 0.5 0
5 0.5 0
4.875 0.625 0
5 0.625 0
4.75 0.625 0
4.875 0.625 0
4.75 0.75 0
4.875 0.75 0
4.875 0.625 0
5 0.625 0
4.875 0.75 0
5 0.75 0
4.5 0.75 0
4.625 0.75 0
4.5 0.875 0
4.625 0.875 0
4.625 0.75 0
4.75 0.75 0
4.625 0.875 0
4.75 0.875 0
4.5 0.875 0
4.625 0.875 0
4.5 1 0
4.625 1 0
4.625 0.875 0
4.75 0.875 0
4.625 1 0
4.75 1 0
4.75 0.75 0
4.875 0.75 0
4.75 0.875 0
4.875 0.875 0
4.875 0.75 0
5 0.75 0
4.875 0.875 0
5 0.875 0
4.75 0.875 0
4.875 0.875 0
4.75 1 0
4.875 1 0
4.875 0.875 0
5 0.875 0
4.875 1 0
5 1 0
3 0 0
3.125 0 0
3 0.125 0
3.125 0.125 0
3.125 0 0
3.25 0 0
3.125 0.125 0
3.25 0.125 0
3 0.125 0
3.125 0.125 0
3 0.25 0
3.125 0.25 0
3.125 0.125 0
3.25 0.125 0
3.125 0.25 0
3.25 0.25 0
3.25 0 0
3.375 0 0
3.25 0.125 0
3.375 0.125 0
3.375 0 0
3.5 0 0
3.375 0.125 0
3.5 0.125 0
3.25 0.125 0
3.375 0.125 0
3.25 0.25 0
3.375 0.25 0
3.375 0.125 0
3.5 0.125 0
3.375 0.25 0
3.5 0.25 0
3 0.25 0
3.125 0.25 0
3 0.375 0
3.125 0.375 0
3.125 0.25 0
3.25 0.25 0
3.125 0.375 0
3.25 0.375 0
3 0.375 0
3.125 0.375 0
3 0.5 0
3.125 0.5 0
3.125 0.375 0
3.25 0.375 0
3.125 0.5 0
3.25 0.5 0
3.25 0.25 0
3.375 0.25 0
3.25 0.375 0
3.375 0.375 0
3.375 0.25 0
3.5 0.25 0
3.375 0.375 0
3.5 0.375 0
3.25 0.375 0
3.375 0.375 0
3.25 0.5 0
3.375 0.5 0
3.375 0.375 0
3.5 0.375 0
3.375 0.5 0
3.5 0.5 0
3.5 0 0
3.625 0 0
3.5 0.125 0
3.625 0.125 0
3.625 0 0
3.75 0 0
3.625 0.125 0
3.75 0.125 0
3.5 0.125 0
3.625 0.125 0
3.5 0.25 0
3.625 0.25 0
3.625 0.125 0
3.75 0.125 0
3.625 0.25 0
3.75 0.25 0
3.75 0 0
3.875 0 0
3.75 0.125 0
3.875 0.125 0
3.875 0 0
4 0 0
3.875 0.125 0
4 0.125 0
3.75 0.125 0
3.875 0.125 0
3.75 0.25 0
3.875 0.25 0
3.875 0.125 0
4 0.125 0
3.875 0.25 0
4 0.25 0
3.5 0.25 0
3.625 0.25 0
3.5 0.375 0
3.625 0.375 0
3.625 0.25 0
3.75 0.25 0
3.625 0.375 0
3.75 0.375 0
3.5 0.375 0
3.625 0.375 0
3.5 0.5 0
3.625 0.5 0
3.625 0.375 0
3.75 0.375 0
3.625 0.5 0
3.75 0.5 0
3.75 0.25 0
3.875 0.25 0
3.75 0.375 0
3.875 0.375 0
3.875 0.25 0
4 0.25 0
3.875 0.375 0
4 0.375 0
3.75 0.375 0
3.875 0.375 0
3.75 0.5 0
3.875 0.5 0
3.875 0.375 0
4 0.375 0
3.875 0.5 0
4 0.5 0
3 0.5 0
3.125 0.5 0
3 0.625 0
3.125 0.625 0
3.125 0.5 0
3.25 0.5 0
3.125 0.625 0
3.25 0.625 0
3 0.625 0
3.125 0.625 0
3 0.75 0
3.125 0.75 0
3.125 0.625 0
3.25 0.625 0
3.125 0.75 0
3.25 0.75 0
3.25 0.5 0
3.375 0.5 0
3.25 0.625 0
3.375 0.625 0
3.375 0.5 0
3.5 0.5 0
3.375 0.625 0
3.5 0.625 0
3.25 0.625 0
3.375 0.625 0
3.25 0.75 0
3.375 0.75 0
3.375 0.625 0
3.5 0.625 0
3.375 0.75 0
3.5 0.75 0
3 0.75 0
3.125 0.75 0
3 0.875 0
3.125 0.875 0
3.125 0.75 0
3.25 0.75 0
3.125 0.875 0
3.25 0.875 0
3 0.875 0
3.125 0.875 0
3 1 0
3.125 1 0
3.125 0.875 0
3.25 0.875 0
3.125 1 0
3.25 1 0
3.25 0.75 0
3.375 0.75 0
3.25 0.875 0
3.375 0.875 0
3.375 0.75 0
3.5 0.75 0
3.375 0.875 0
3.5 0.875 0
3.25 0.875 0
3.375 0.875 0
3.25 1 0
3.375 1 0
3.375 0.875 0
3.5 0.875 0
3.375 1 0
3.5 1 0
3.5 0.5 0
3.625 0.5 0
3.5 0.625 0
3.625 0.625 0
3.625 0.5 0
3.75 0.5 0
3.625 0.625 0
3.75 0.625 0
3.5 0.625 0
3.625 0.625 0
3.5 0.75 0
3.625 0.75 0
3.625 0.625 0
3.75 0.625 0
3.625 0.75 0
3.75 0.75 0
3.75 0.5 0
3.875 0.5 0
3.75 0.625 0
3.875 0.625 0
3.875 0.5 0
4 0.5 0
3.875 0.625 0
4 0.625 0
3.75 0.625 0
3.875 0.625 0
3.75 0.75 0
3.875 0.75 0
3.875 0.625 0
4 0.625 0
3.875 0.75 0
4 0.75 0
3.5 0.75 0
3.625 0.75 0
3.5 0.875 0
3.625 0.875 0
3.625 0.75 0
3.75 0.75 0
3.625 0.875 0
3.75 0.875 0
3.5 0.875 0
3.625 0.875 0
3.5 1 0
3.625 1 0
3.625 0.875 0
3.75 0.875 0
3.625 1 0
3.75 1 0
3.75 0.75 0
3.875 0.75 0
3.75 0.875 0
3.875 0.875 0
3.875 0.75 0
4 0.75 0
3.875 0.875 0
4 0.875 0
3.75 0.875 0
3.875 0.875 0
3.75 1 0
3.875 1 0
3.875 0.875 0
4 0.875 0
3.875 1 0
4 1 0
2 0 0
2.125 0 0
2 0.125 0
2.125 0.125 0
2.125 0 0
2.25 0 0
2.125 0.125 0
2.25 0.125 0
2 0.125 0
2.125 0.125 0
2 0.25 0
2.125 0.25 0
2.125 0.125 0
2.25 0.125 0
2.125 0.25 0
2.25 0.25 0
2.25 0 0
2.375 0 0
2.25 0.125 0
2.375 0.125 0
2.375 0 0
2.5 0 0
2.375 0.125 0
2.5 0.125 0
2.25 0.125 0
2.375 0.125 0
2.25 0.25 0
2.375 0.25 0
2.375 0.125 0
2.5 0.125 0
2.375 0.25 0
2.5 0.25 0
2 0.25 0
2.125 0.25 0
2 0.375 0
2.125 0.375 0
2.125 0.25 0
2.25 0.25 0
2.125 0.375 0
2.25 0.375 0
2 0.375 0
2.125 0.375 0
2 0.5 0
2.125 0.5 0
2.125 0.375 0
2.25 0.375 0
2.125 0.5 0
2.25 0.5 0
2.25 0.25 0
2.375 0.25 0
2.25 0.375 0
2.375 0.375 0
2.375 0.25 0
[...]
POINT_DATA 1536
VECTORS displacements double
38.438 -45.0024 0
39.1711 -40.26 0
33.8908 -45.2203 0
34.4411 -40.4668 0
39.1711 -40.26 0
39.8778 -35.334 0
34.4411 -40.4668 0
34.9623 -35.5341 0
33.8908 -45.2203 0
34.4411 -40.4668 0
29.8245 -45.3713 0
30.1875 -40.6072 0
34.4411 -40.4668 0
34.9623 -35.5341 0
30.1875 -40.6072 0
30.5349 -35.6606 0
39.8778 -35.334 0
40.5533 -30.2327 0
34.9623 -35.5341 0
35.4656 -30.4187 0
40.5533 -30.2327 0
41.2219 -24.9559 0
35.4656 -30.4187 0
35.9332 -25.1434 0
34.9623 -35.5341 0
35.4656 -30.4187 0
30.5349 -35.6606 0
30.8462 -30.5356 0
35.4656 -30.4187 0
35.9332 -25.1434 0
30.8462 -30.5356 0
31.1345 -25.2309 0
29.8245 -45.3713 0
30.1875 -40.6072 0
25.9322 -45.4444 0
26.1169 -40.6768 0
30.1875 -40.6072 0
30.5349 -35.6606 0
26.1169 -40.6768 0
26.2691 -35.714 0
25.9322 -45.4444 0
26.1169 -40.6768 0
22.1136 -45.4474 0
22.1126 -40.6635 0
26.1169 -40.6768 0
26.2691 -35.714 0
22.1126 -40.6635 0
22.1006 -35.6983 0
30.5349 -35.6606 0
30.8462 -30.5356 0
26.2691 -35.714 0
26.4136 -30.5685 0
30.8462 -30.5356 0
31.1345 -25.2309 0
26.4136 -30.5685 0
26.5122 -25.2486 0
26.2691 -35.714 0
26.4136 -30.5685 0
22.1006 -35.6983 0
22.0467 -30.536 0
26.4136 -30.5685 0
26.5122 -25.2486 0
22.0467 -30.536 0
22.0002 -25.1965 0
41.2219 -24.9559 0
41.8746 -19.5043 0
35.9332 -25.1434 0
36.3855 -19.6639 0
41.8746 -19.5043 0
42.6052 -13.7973 0
36.3855 -19.6639 0
36.7452 -14.0057 0
35.9332 -25.1434 0
36.3855 -19.6639 0
31.1345 -25.2309 0
31.373 -19.74 0
36.3855 -19.6639 0
36.7452 -14.0057 0
31.373 -19.74 0
31.5444 -14.0112 0
42.6052 -13.7973 0
43.4252 -7.8103 0
36.7452 -14.0057 0
36.9195 -7.73073 0
43.4252 -7.8103 0
43.8607 0 0
36.9195 -7.73073 0
37.1105 -1.40732 0
36.7452 -14.0057 0
36.9195 -7.73073 0
31.5444 -14.0112 0
31.5455 -8.00525 0
36.9195 -7.73073 0
37.1105 -1.40732 0
31.5455 -8.00525 0
31.6867 -2.35882 0
31.1345 -25.2309 0
31.373 -19.74 0
26.5122 -25.2486 0
26.5857 -19.7441 0
31.373 -19.74 0
31.5444 -14.0112 0
26.5857 -19.7441 0
26.5365 -14.0832 0
26.5122 -25.2486 0
26.5857 -19.7441 0
22.0002 -25.1965 0
21.8856 -19.765 0
26.5857 -19.7441 0
26.5365 -14.0832 0
21.8856 -19.765 0
21.7683 -14.2639 0
31.5444 -14.0112 0
31.5455 -8.00525 0
26.5365 -14.0832 0
26.536 -8.43896 0
31.5455 -8.00525 0
31.6867 -2.35882 0
26.536 -8.43896 0
26.6222 -2.98422 0
26.5365 -14.0832 0
26.536 -8.43896 0
21.7683 -14.2639 0
21.7239 -8.78207 0
26.536 -8.43896 0
26.6222 -2.98422 0
21.7239 -8.78207 0
21.7971 -3.55533 0
22.1136 -45.4474 0
22.1126 -40.6635 0
18.2962 -45.3731 0
18.1028 -40.5901 0
22.1126 -40.6635 0
22.1006 -35.6983 0
18.1028 -40.5901 0
17.9056 -35.5999 0
18.2962 -45.3731 0
18.1028 -40.5901 0
14.3831 -45.2263 0
14.0088 -40.4455 0
18.1028 -40.5901 0
17.9056 -35.5999 0
14.0088 -40.4455 0
13.6331 -35.4852 0
22.1006 -35.6983 0
22.0467 -30.536 0
17.9056 -35.5999 0
17.7108 -30.449 0
22.0467 -30.536 0
22.0002 -25.1965 0
17.7108 -30.449 0
17.4811 -25.1745 0
17.9056 -35.5999 0
17.7108 -30.449 0
13.6331 -35.4852 0
13.2497 -30.3706 0
17.7108 -30.449 0
17.4811 -25.1745 0
13.2497 -30.3706 0
12.9077 -25.1418 0
14.3831 -45.2263 0
14.0088 -40.4455 0
10.2563 -45.04 0
9.6839 -40.2755 0
14.0088 -40.4455 0
13.6331 -35.4852 0
9.6839 -40.2755 0
9.1423 -35.3503 0
10.2563 -45.04 0
9.6839 -40.2755 0
5.76284 -44.8217 0
5.09627 -40.0729 0
9.6839 -40.2755 0
9.1423 -35.3503 0
5.09627 -40.0729 0
4.52681 -35.208 0
13.6331 -35.4852 0
13.2497 -30.3706 0
9.1423 -35.3503 0
8.688 -30.2709 0
13.2497 -30.3706 0
12.9077 -25.1418 0
8.688 -30.2709 0
8.33551 -25.1203 0
9.1423 -35.3503 0
8.688 -30.2709 0
4.52681 -35.208 0
3.99565 -30.1837 0
8.688 -30.2709 0
8.33551 -25.1203 0
3.99565 -30.1837 0
3.47326 -25.0141 0
22.0002 -25.1965 0
21.8856 -19.765 0
17.4811 -25.1745 0
17.2539 -19.8129 0
21.8856 -19.765 0
21.7683 -14.2639 0
17.2539 -19.8129 0
17.1115 -14.4252 0
17.4811 -25.1745 0
17.2539 -19.8129 0
12.9077 -25.1418 0
12.6722 -19.8616 0
17.2539 -19.8129 0
17.1115 -14.4252 0
12.6722 -19.8616 0
12.4934 -14.5393 0
21.7683 -14.2639 0
21.7239 -8.78207 0
17.1115 -14.4252 0
17.0503 -9.07049 0
21.7239 -8.78207 0
21.7971 -3.55533 0
17.0503 -9.07049 0
17.1155 -4.02543 0
17.1115 -14.4252 0
17.0503 -9.07049 0
12.4934 -14.5393 0
12.4184 -9.28233 0
17.0503 -9.07049 0
17.1155 -4.02543 0
12.4184 -9.28233 0
12.4436 -4.3119 0
12.9077 -25.1418 0
12.6722 -19.8616 0
8.33551 -25.1203 0
8.01792 -19.8592 0
12.6722 -19.8616 0
12.4934 -14.5393 0
8.01792 -19.8592 0
7.78802 -14.5719 0
8.33551 -25.1203 0
8.01792 -19.8592 0
3.47326 -25.0141 0
3.06089 -19.7775 0
8.01792 -19.8592 0
7.78802 -14.5719 0
3.06089 -19.7775 0
2.80738 -14.5376 0
12.4934 -14.5393 0
12.4184 -9.28233 0
7.78802 -14.5719 0
7.67519 -9.38511 0
12.4184 -9.28233 0
12.4436 -4.3119 0
7.67519 -9.38511 0
7.656 -4.40487 0
7.78802 -14.5719 0
7.67519 -9.38511 0
2.80738 -14.5376 0
2.72249 -9.4018 0
7.67519 -9.38511 0
7.656 -4.40487 0
2.72249 -9.4018 0
2.71686 -4.411 0
31.3717 -75.4036 0
32.3827 -72.4318 0
28.6369 -75.6994 0
29.3732 -72.717 0
32.3827 -72.4318 0
33.3519 -69.1957 0
29.3732 -72.717 0
30.0882 -69.4701 0
28.6369 -75.6994 0
29.3732 -72.717 0
26.3172 -75.8958 0
26.7789 -72.9067 0
29.3732 -72.717 0
30.0882 -69.4701 0
26.7789 -72.9067 0
27.2409 -69.6524 0
33.3519 -69.1957 0
34.2834 -65.714 0
30.0882 -69.4701 0
30.7804 -65.9783 0
34.2834 -65.714 0
35.1807 -61.9999 0
30.7804 -65.9783 0
31.4486 -62.2553 0
30.0882 -69.4701 0
30.7804 -65.9783 0
27.2409 -69.6524 0
27.7011 -66.1523 0
30.7804 -65.9783 0
31.4486 -62.2553 0
27.7011 -66.1523 0
28.1546 -62.4225 0
26.3172 -75.8958 0
26.7789 -72.9067 0
24.2228 -75.9913 0
24.4093 -72.9979 0
26.7789 -72.9067 0
27.2409 -69.6524 0
24.4093 -72.9979 0
24.6114 -69.7413 0
24.2228 -75.9913 0
24.4093 -72.9979 0
22.1976 -75.9878 0
22.1225 -72.9919 0
24.4093 -72.9979 0
24.6114 -69.7413 0
22.1225 -72.9919 0
22.0751 -69.7376 0
27.2409 -69.6524 0
27.7011 -66.1523 0
24.6114 -69.7413 0
24.8284 -66.2389 0
27.7011 -66.1523 0
28.1546 -62.4225 0
24.8284 -66.2389 0
25.0559 -62.5066 0
24.6114 -69.7413 0
24.8284 -66.2389 0
22.0751 -69.7376 0
22.0534 -66.2395 0
24.8284 -66.2389 0
25.0559 -62.5066 0
22.0534 -66.2395 0
22.0519 -62.5102 0
35.1807 -61.9999 0
36.0442 -58.0625 0
31.4486 -62.2553 0
32.0948 -58.3088 0
36.0442 -58.0625 0
36.8742 -53.9118 0
32.0948 -58.3088 0
32.7183 -54.1484 0
31.4486 -62.2553 0
32.0948 -58.3088 0
28.1546 -62.4225 0
28.5964 -58.474 0
32.0948 -58.3088 0
32.7183 -54.1484 0
28.5964 -58.474 0
29.024 -54.3108 0
36.8742 -53.9118 0
37.6723 -49.5563 0
32.7183 -54.1484 0
33.3168 -49.7836 0
37.6723 -49.5563 0
38.438 -45.0024 0
33.3168 -49.7836 0
33.8908 -45.2203 0
32.7183 -54.1484 0
33.3168 -49.7836 0
29.024 -54.3108 0
29.4354 -49.9396 0
33.3168 -49.7836 0
33.8908 -45.2203 0
29.4354 -49.9396 0
29.8245 -45.3713 0
28.1546 -62.4225 0
28.5964 -58.474 0
25.0559 -62.5066 0
25.287 -58.5559 0
28.5964 -58.474 0
29.024 -54.3108 0
25.287 -58.5559 0
25.5137 -54.3941 0
25.0559 -62.5066 0
25.287 -58.5559 0
22.0519 -62.5102 0
22.0646 -58.5599 0
25.287 -58.5559 0
25.5137 -54.3941 0
22.0646 -58.5599 0
22.0853 -54.3966 0
29.024 -54.3108 0
29.4354 -49.9396 0
25.5137 -54.3941 0
25.7293 -50.0221 0
29.4354 -49.9396 0
29.8245 -45.3713 0
25.7293 -50.0221 0
25.9322 -45.4444 0
25.5137 -54.3941 0
25.7293 -50.0221 0
22.0853 -54.3966 0
22.105 -50.0258 0
25.7293 -50.0221 0
25.9322 -45.4444 0
22.105 -50.0258 0
22.1136 -45.4474 0
22.1976 -75.9878 0
22.1225 -72.9919 0
20.1388 -75.8919 0
19.823 -72.8951 0
22.1225 -72.9919 0
22.0751 -69.7376 0
19.823 -72.8951 0
19.541 -69.6491 0
20.1388 -75.8919 0
19.823 -72.8951 0
17.9688 -75.7124 0
17.4311 -72.7225 0
19.823 -72.8951 0
19.541 -69.6491 0
17.4311 -72.7225 0
16.9241 -69.4899 0
22.0751 -69.7376 0
22.0534 -66.2395 0
19.541 -69.6491 0
19.2889 -66.1617 0
22.0534 -66.2395 0
22.0519 -62.5102 0
19.2889 -66.1617 0
19.0611 -62.4406 0
19.541 -69.6491 0
19.2889 -66.1617 0
16.9241 -69.4899 0
16.4453 -66.0162 0
19.2889 -66.1617 0
19.0611 -62.4406 0
16.4453 -66.0162 0
15.992 -62.3052 0
17.9688 -75.7124 0
17.4311 -72.7225 0
15.5772 -75.4745 0
14.8233 -72.4943 0
17.4311 -72.7225 0
16.9241 -69.4899 0
14.8233 -72.4943 0
14.0955 -69.2733 0
15.5772 -75.4745 0
14.8233 -72.4943 0
12.7875 -75.1797 0
11.8011 -72.2076 0
14.8233 -72.4943 0
14.0955 -69.2733 0
11.8011 -72.2076 0
10.8394 -68.9954 0
16.9241 -69.4899 0
16.4453 -66.0162 0
14.0955 -69.2733 0
13.3941 -65.811 0
16.4453 -66.0162 0
15.992 -62.3052 0
13.3941 -65.811 0
12.719 -62.1095 0
14.0955 -69.2733 0
13.3941 -65.811 0
10.8394 -68.9954 0
9.90512 -65.5423 0
13.3941 -65.811 0
12.719 -62.1095 0
9.90512 -65.5423 0
9.00091 -61.8504 0
22.0519 -62.5102 0
22.0646 -58.5599 0
19.0611 -62.4406 0
18.8526 -58.4932 0
22.0646 -58.5599 0
22.0853 -54.3966 0
18.8526 -58.4932 0
18.6592 -54.3276 0
19.0611 -62.4406 0
18.8526 -58.4932 0
15.992 -62.3052 0
15.5618 -58.3626 0
18.8526 -58.4932 0
18.6592 -54.3276 0
15.5618 -58.3626 0
15.1526 -54.1957 0
22.0853 -54.3966 0
22.105 -50.0258 0
18.6592 -54.3276 0
18.477 -49.9521 0
22.105 -50.0258 0
22.1136 -45.4474 0
18.477 -49.9521 0
18.2962 -45.3731 0
18.6592 -54.3276 0
18.477 -49.9521 0
15.1526 -54.1957 0
14.7613 -49.8132 0
18.477 -49.9521 0
18.2962 -45.3731 0
14.7613 -49.8132 0
14.3831 -45.2263 0
15.992 -62.3052 0
15.5618 -58.3626 0
12.719 -62.1095 0
12.0695 -58.1733 0
15.5618 -58.3626 0
15.1526 -54.1957 0
12.0695 -58.1733 0
11.4446 -54.0088 0
12.719 -62.1095 0
12.0695 -58.1733 0
9.00091 -61.8504 0
8.12965 -57.9239 0
12.0695 -58.1733 0
11.4446 -54.0088 0
8.12965 -57.9239 0
7.29491 -53.7694 0
15.1526 -54.1957 0
14.7613 -49.8132 0
11.4446 -54.0088 0
10.8418 -49.6261 0
14.7613 -49.8132 0
14.3831 -45.2263 0
10.8418 -49.6261 0
10.2563 -45.04 0
11.4446 -54.0088 0
10.8418 -49.6261 0
7.29491 -53.7694 0
6.50237 -49.3965 0
10.8418 -49.6261 0
10.2563 -45.04 0
6.50237 -49.3965 0
5.76284 -44.8217 0
21.9303 -87.314 0
23.2028 -87.1122 0
21.9303 -87.68 0
22.8241 -87.4764 0
23.2028 -87.1122 0
24.4619 -86.5132 0
22.8241 -87.4764 0
23.7145 -86.8724 0
21.9303 -87.68 0
22.8241 -87.4764 0
21.9303 -88.0953 0
22.6236 -87.8712 0
22.8241 -87.4764 0
23.7145 -86.8724 0
22.6236 -87.8712 0
23.2721 -87.2159 0
24.4619 -86.5132 0
25.6974 -85.5337 0
23.7145 -86.8724 0
24.5958 -85.885 0
25.6974 -85.5337 0
26.904 -84.1914 0
24.5958 -85.885 0
25.4582 -84.5328 0
23.7145 -86.8724 0
24.5958 -85.885 0
23.2721 -87.2159 0
23.8577 -86.179 0
24.5958 -85.885 0
25.4582 -84.5328 0
23.8577 -86.179 0
24.3946 -84.7956 0
21.9303 -88.0953 0
22.6236 -87.8712 0
21.9303 -88.5931 0
22.4366 -88.3477 0
22.6236 -87.8712 0
23.2721 -87.2159 0
22.4366 -88.3477 0
22.8831 -87.6353 0
21.9303 -88.5931 0
22.4366 -88.3477 0
21.9303 -89.0887 0
22.2342 -88.8206 0
22.4366 -88.3477 0
22.8831 -87.6353 0
22.2342 -88.8206 0
22.4632 -88.0388 0
23.2721 -87.2159 0
23.8577 -86.179 0
22.8831 -87.6353 0
23.2354 -86.5149 0
23.8577 -86.179 0
24.3946 -84.7956 0
23.2354 -86.5149 0
23.5074 -85.045 0
22.8831 -87.6353 0
23.2354 -86.5149 0
22.4632 -88.0388 0
22.5766 -86.8153 0
23.2354 -86.5149 0
23.5074 -85.045 0
22.5766 -86.8153 0
22.5834 -85.2348 0
26.904 -84.1914 0
28.0792 -82.4964 0
25.4582 -84.5328 0
26.2928 -82.8273 0
28.0792 -82.4964 0
29.2177 -80.4573 0
26.2928 -82.8273 0
27.1005 -80.7764 0
25.4582 -84.5328 0
26.2928 -82.8273 0
24.3946 -84.7956 0
24.9054 -83.0674 0
26.2928 -82.8273 0
27.1005 -80.7764 0
24.9054 -83.0674 0
25.3896 -81.0007 0
29.2177 -80.4573 0
30.3165 -78.0871 0
27.1005 -80.7764 0
27.8801 -78.395 0
30.3165 -78.0871 0
31.3717 -75.4036 0
27.8801 -78.395 0
28.6369 -75.6994 0
27.1005 -80.7764 0
27.8801 -78.395 0
25.3896 -81.0007 0
25.8537 -78.6004 0
27.8801 -78.395 0
28.6369 -75.6994 0
25.8537 -78.6004 0
26.3172 -75.8958 0
24.3946 -84.7956 0
24.9054 -83.0674 0
23.5074 -85.045 0
23.7158 -83.2461 0
24.9054 -83.0674 0
25.3896 -81.0007 0
23.7158 -83.2461 0
23.8838 -81.1275 0
23.5074 -85.045 0
23.7158 -83.2461 0
22.5834 -85.2348 0
22.5145 -83.3393 0
23.7158 -83.2461 0
23.8838 -81.1275 0
22.5145 -83.3393 0
22.4083 -81.1634 0
25.3896 -81.0007 0
25.8537 -78.6004 0
23.8838 -81.1275 0
24.0501 -78.7044 0
25.8537 -78.6004 0
26.3172 -75.8958 0
24.0501 -78.7044 0
24.2228 -75.9913 0
23.8838 -81.1275 0
24.0501 -78.7044 0
22.4083 -81.1634 0
22.2961 -78.7137 0
24.0501 -78.7044 0
24.2228 -75.9913 0
22.2961 -78.7137 0
22.1976 -75.9878 0
21.9303 -89.0887 0
22.2342 -88.8206 0
21.9303 -89.5808 0
22.0069 -89.274 0
22.2342 -88.8206 0
22.4632 -88.0388 0
22.0069 -89.274 0
21.9848 -88.3808 0
21.9303 -89.5808 0
22.0069 -89.274 0
21.9303 -90.0576 0
21.7041 -89.6864 0
22.0069 -89.274 0
21.9848 -88.3808 0
21.7041 -89.6864 0
21.3763 -88.5805 0
22.4632 -88.0388 0
22.5766 -86.8153 0
21.9848 -88.3808 0
21.8202 -87.0142 0
22.5766 -86.8153 0
22.5834 -85.2348 0
21.8202 -87.0142 0
21.5533 -85.3122 0
21.9848 -88.3808 0
21.8202 -87.0142 0
21.3763 -88.5805 0
20.9069 -87.0549 0
21.8202 -87.0142 0
21.5533 -85.3122 0
20.9069 -87.0549 0
20.3418 -85.2581 0
21.9303 -90.0576 0
21.7041 -89.6864 0
21.9303 -90.5098 0
21.3138 -89.8802 0
21.7041 -89.6864 0
21.3763 -88.5805 0
21.3138 -89.8802 0
20.5388 -88.5276 0
21.9303 -90.5098 0
21.3138 -89.8802 0
21.9303 -90.4987 0
20.4612 -89.7302 0
21.3138 -89.8802 0
20.5388 -88.5276 0
20.4612 -89.7302 0
19.1855 -88.2011 0
21.3763 -88.5805 0
20.9069 -87.0549 0
20.5388 -88.5276 0
19.6795 -86.9013 0
20.9069 -87.0549 0
20.3418 -85.2581 0
19.6795 -86.9013 0
18.8231 -85.0634 0
20.5388 -88.5276 0
19.6795 -86.9013 0
19.1855 -88.2011 0
18.0402 -86.581 0
19.6795 -86.9013 0
18.8231 -85.0634 0
18.0402 -86.581 0
16.9435 -84.7438 0
22.5834 -85.2348 0
22.5145 -83.3393 0
21.5533 -85.3122 0
21.2161 -83.3368 0
22.5145 -83.3393 0
22.4083 -81.1634 0
21.2161 -83.3368 0
20.8511 -81.11 0
21.5533 -85.3122 0
21.2161 -83.3368 0
20.3418 -85.2581 0
19.7424 -83.2261 0
21.2161 -83.3368 0
20.8511 -81.11 0
19.7424 -83.2261 0
19.135 -80.9627 0
22.4083 -81.1634 0
22.2961 -78.7137 0
20.8511 -81.11 0
20.4856 -78.6308 0
22.2961 -78.7137 0
22.1976 -75.9878 0
20.4856 -78.6308 0
20.1388 -75.8919 0
20.8511 -81.11 0
20.4856 -78.6308 0
19.135 -80.9627 0
18.5386 -78.4593 0
20.4856 -78.6308 0
20.1388 -75.8919 0
18.5386 -78.4593 0
17.9688 -75.7124 0
20.3418 -85.2581 0
19.7424 -83.2261 0
18.8231 -85.0634 0
17.9813 -83.0059 0
19.7424 -83.2261 0
19.135 -80.9627 0
17.9813 -83.0059 0
17.1582 -80.7256 0
18.8231 -85.0634 0
17.9813 -83.0059 0
16.9435 -84.7438 0
15.8738 -82.6915 0
17.9813 -83.0059 0
17.1582 -80.7256 0
15.8738 -82.6915 0
14.8251 -80.4169 0
19.135 -80.9627 0
18.5386 -78.4593 0
17.1582 -80.7256 0
16.3562 -78.2169 0
18.5386 -78.4593 0
17.9688 -75.7124 0
16.3562 -78.2169 0
15.5772 -75.4745 0
17.1582 -80.7256 0
16.3562 -78.2169 0
14.8251 -80.4169 0
13.796 -77.9147 0
16.3562 -78.2169 0
15.5772 -75.4745 0
13.796 -77.9147 0
12.7875 -75.1797 0
12.4889 -75.4036 0
13.5442 -78.0871 0
15.2237 -75.6994 0
15.9805 -78.395 0
13.5442 -78.0871 0
14.643 -80.4573 0
15.9805 -78.395 0
16.7602 -80.7764 0
15.2237 -75.6994 0
15.9805 -78.395 0
17.5435 -75.8958 0
18.007 -78.6004 0
15.9805 -78.395 0
16.7602 -80.7764 0
18.007 -78.6004 0
18.471 -81.0007 0
14.643 -80.4573 0
15.7815 -82.4964 0
16.7602 -80.7764 0
17.5679 -82.8273 0
15.7815 -82.4964 0
16.9567 -84.1914 0
17.5679 -82.8273 0
18.4025 -84.5328 0
16.7602 -80.7764 0
17.5679 -82.8273 0
18.471 -81.0007 0
18.9553 -83.0674 0
17.5679 -82.8273 0
18.4025 -84.5328 0
18.9553 -83.0674 0
19.466 -84.7956 0
17.5435 -75.8958 0
18.007 -78.6004 0
19.6379 -75.9913 0
19.8105 -78.7044 0
18.007 -78.6004 0
18.471 -81.0007 0
19.8105 -78.7044 0
19.9769 -81.1275 0
19.6379 -75.9913 0
19.8105 -78.7044 0
21.6631 -75.9878 0
21.5645 -78.7137 0
19.8105 -78.7044 0
19.9769 -81.1275 0
21.5645 -78.7137 0
21.4524 -81.1634 0
18.471 -81.0007 0
18.9553 -83.0674 0
19.9769 -81.1275 0
20.1448 -83.2461 0
18.9553 -83.0674 0
19.466 -84.7956 0
20.1448 -83.2461 0
20.3533 -85.045 0
19.9769 -81.1275 0
20.1448 -83.2461 0
21.4524 -81.1634 0
21.3461 -83.3393 0
20.1448 -83.2461 0
20.3533 -85.045 0
21.3461 -83.3393 0
21.2773 -85.2348 0
16.9567 -84.1914 0
18.1633 -85.5337 0
18.4025 -84.5328 0
19.2649 -85.885 0
18.1633 -85.5337 0
19.3987 -86.5132 0
19.2649 -85.885 0
20.1462 -86.8724 0
18.4025 -84.5328 0
19.2649 -85.885 0
19.466 -84.7956 0
20.003 -86.179 0
19.2649 -85.885 0
20.1462 -86.8724 0
20.003 -86.179 0
20.5885 -87.2159 0
19.3987 -86.5132 0
20.6579 -87.1122 0
20.1462 -86.8724 0
21.0366 -87.4764 0
20.6579 -87.1122 0
21.9303 -87.314 0
21.0366 -87.4764 0
21.9303 -87.68 0
20.1462 -86.8724 0
21.0366 -87.4764 0
20.5885 -87.2159 0
21.237 -87.8712 0
21.0366 -87.4764 0
21.9303 -87.68 0
21.237 -87.8712 0
21.9303 -88.0953 0
19.466 -84.7956 0
20.003 -86.179 0
20.3533 -85.045 0
20.6253 -86.5149 0
20.003 -86.179 0
20.5885 -87.2159 0
20.6253 -86.5149 0
20.9776 -87.6353 0
20.3533 -85.045 0
20.6253 -86.5149 0
21.2773 -85.2348 0
21.284 -86.8153 0
20.6253 -86.5149 0
20.9776 -87.6353 0
21.284 -86.8153 0
21.3975 -88.0388 0
20.5885 -87.2159 0
21.237 -87.8712 0
20.9776 -87.6353 0
21.424 -88.3477 0
21.237 -87.8712 0
21.9303 -88.0953 0
21.424 -88.3477 0
21.9303 -88.5931 0
20.9776 -87.6353 0
21.424 -88.3477 0
21.3975 -88.0388 0
21.6264 -88.8206 0
21.424 -88.3477 0
21.9303 -88.5931 0
21.6264 -88.8206 0
21.9303 -89.0887 0
21.6631 -75.9878 0
21.5645 -78.7137 0
23.7219 -75.8919 0
23.3751 -78.6308 0
21.5645 -78.7137 0
21.4524 -81.1634 0
23.3751 -78.6308 0
23.0095 -81.11 0
23.7219 -75.8919 0
23.3751 -78.6308 0
25.8919 -75.7124 0
25.3221 -78.4593 0
23.3751 -78.6308 0
23.0095 -81.11 0
25.3221 -78.4593 0
24.7256 -80.9627 0
21.4524 -81.1634 0
21.3461 -83.3393 0
23.0095 -81.11 0
22.6446 -83.3368 0
21.3461 -83.3393 0
21.2773 -85.2348 0
22.6446 -83.3368 0
22.3074 -85.3122 0
23.0095 -81.11 0
22.6446 -83.3368 0
24.7256 -80.9627 0
24.1183 -83.2261 0
22.6446 -83.3368 0
22.3074 -85.3122 0
24.1183 -83.2261 0
23.5189 -85.2581 0
25.8919 -75.7124 0
25.3221 -78.4593 0
28.2834 -75.4745 0
27.5045 -78.2169 0
25.3221 -78.4593 0
24.7256 -80.9627 0
27.5045 -78.2169 0
26.7024 -80.7256 0
28.2834 -75.4745 0
27.5045 -78.2169 0
31.0732 -75.1797 0
30.0646 -77.9147 0
27.5045 -78.2169 0
26.7024 -80.7256 0
30.0646 -77.9147 0
29.0356 -80.4169 0
24.7256 -80.9627 0
24.1183 -83.2261 0
26.7024 -80.7256 0
25.8794 -83.0059 0
24.1183 -83.2261 0
23.5189 -85.2581 0
25.8794 -83.0059 0
25.0375 -85.0634 0
26.7024 -80.7256 0
25.8794 -83.0059 0
29.0356 -80.4169 0
27.9868 -82.6915 0
25.8794 -83.0059 0
25.0375 -85.0634 0
27.9868 -82.6915 0
26.9172 -84.7438 0
21.2773 -85.2348 0
21.284 -86.8153 0
22.3074 -85.3122 0
22.0404 -87.0142 0
21.284 -86.8153 0
21.3975 -88.0388 0
22.0404 -87.0142 0
21.8759 -88.3808 0
22.3074 -85.3122 0
22.0404 -87.0142 0
23.5189 -85.2581 0
22.9538 -87.0549 0
22.0404 -87.0142 0
21.8759 -88.3808 0
22.9538 -87.0549 0
22.4843 -88.5805 0
21.3975 -88.0388 0
21.6264 -88.8206 0
21.8759 -88.3808 0
21.8537 -89.274 0
21.6264 -88.8206 0
21.9303 -89.0887 0
21.8537 -89.274 0
21.9303 -89.5808 0
21.8759 -88.3808 0
21.8537 -89.274 0
22.4843 -88.5805 0
22.1566 -89.6864 0
21.8537 -89.274 0
21.9303 -89.5808 0
22.1566 -89.6864 0
21.9303 -90.0576 0
23.5189 -85.2581 0
22.9538 -87.0549 0
25.0375 -85.0634 0
24.1811 -86.9013 0
22.9538 -87.0549 0
22.4843 -88.5805 0
24.1811 -86.9013 0
23.3218 -88.5276 0
25.0375 -85.0634 0
24.1811 -86.9013 0
26.9172 -84.7438 0
25.8205 -86.581 0
24.1811 -86.9013 0
23.3218 -88.5276 0
25.8205 -86.581 0
24.6752 -88.2011 0
22.4843 -88.5805 0
22.1566 -89.6864 0
23.3218 -88.5276 0
22.5469 -89.8802 0
22.1566 -89.6864 0
21.9303 -90.0576 0
22.5469 -89.8802 0
21.9303 -90.5098 0
23.3218 -88.5276 0
22.5469 -89.8802 0
24.6752 -88.2011 0
23.3995 -89.7302 0
22.5469 -89.8802 0
21.9303 -90.5098 0
23.3995 -89.7302 0
21.9303 -90.4987 0
5.42265 -45.0024 0
6.18839 -49.5563 0
9.96992 -45.2203 0
10.5439 -49.7836 0
6.18839 -49.5563 0
6.98644 -53.9118 0
10.5439 -49.7836 0
11.1424 -54.1484 0
9.96992 -45.2203 0
10.5439 -49.7836 0
14.0362 -45.3713 0
14.4253 -49.9396 0
10.5439 -49.7836 0
11.1424 -54.1484 0
14.4253 -49.9396 0
14.8366 -54.3108 0
6.98644 -53.9118 0
7.81646 -58.0625 0
11.1424 -54.1484 0
11.7659 -58.3088 0
7.81646 -58.0625 0
8.67999 -61.9999 0
11.7659 -58.3088 0
12.412 -62.2553 0
11.1424 -54.1484 0
11.7659 -58.3088 0
14.8366 -54.3108 0
15.2643 -58.474 0
11.7659 -58.3088 0
12.412 -62.2553 0
15.2643 -58.474 0
15.706 -62.4225 0
14.0362 -45.3713 0
14.4253 -49.9396 0
17.9285 -45.4444 0
18.1313 -50.0221 0
14.4253 -49.9396 0
14.8366 -54.3108 0
18.1313 -50.0221 0