# vtk DataFile Version 3.0
#This file was generated by the deal.II library on 2020/9/2 at 8:40:46
ASCII
DATASET UNSTRUCTURED_GRID

POINTS 1536 double
5 0 0
5.125 0 0
5 0.125 0
5.125 0.125 0
5.125 0 0
5.25 0 0
5.125 0.125 0
5.25 0.125 0
5 0.125 0
5.125 0.125 0
5 0.25 0
5.125 0.25 0
5.125 0.125 0
5.25 0.125 0
5.125 0.25 0
5.25 0.25 0
5.25 0 0
5.375 0 0
5.25 0.125 0
5.375 0.125 0
5.375 0 0
5.5 0 0
5.375 0.125 0
5.5 0.125 0
5.25 0.125 0
5.375 0.125 0
5.25 0.25 0
5.375 0.25 0
5.375 0.125 0
5.5 0.125 0
5.375 0.25 0
5.5 0.25 0
5 0.25 0
5.125 0.25 0
5 0.375 0
5.125 0.375 0
5.125 0.25 0
5.25 0.25 0
5.125 0.375 0
5.25 0.375 0
5 0.375 0
5.125 0.375 0
5 0.5 0
5.125 0.5 0
5.125 0.375 0
5.25 0.375 0
5.125 0.5 0
5.25 0.5 0
5.25 0.25 0
5.375 0.25 0
5.25 0.375 0
5.375 0.375 0
5.375 0.25 0
5.5 0.25 0
5.375 0.375 0
5.5 0.375 0
5.25 0.375 0
5.375 0.375 0
5.25 0.5 0
5.375 0.5 0
5.375 0.375 0
5.5 0.375 0
5.375 0.5 0
5.5 0.5 0
5.5 0 0
5.625 0 0
5.5 0.125 0
5.625 0.125 0
5.625 0 0
5.75 0 0
5.625 0.125 0
5.75 0.125 0
5.5 0.125 0
5.625 0.125 0
5.5 0.25 0
5.625 0.25 0
5.625 0.125 0
5.75 0.125 0
5.625 0.25 0
5.75 0.25 0
5.75 0 0
5.875 0 0
5.75 0.125 0
5.875 0.125 0
5.875 0 0
6 0 0
5.875 0.125 0
6 0.125 0
5.75 0.125 0
5.875 0.125 0
5.75 0.25 0
5.875 0.25 0
5.875 0.125 0
6 0.125 0
5.875 0.25 0
6 0.25 0
5.5 0.25 0
5.625 0.25 0
5.5 0.375 0
5.625 0.375 0
5.625 0.25 0
5.75 0.25 0
5.625 0.375 0
5.75 0.375 0
5.5 0.375 0
5.625 0.375 0
5.5 0.5 0
5.625 0.5 0
5.625 0.375 0
5.75 0.375 0
5.625 0.5 0
5.75 0.5 0
5.75 0.25 0
5.875 0.25 0
5.75 0.375 0
5.875 0.375 0
5.875 0.25 0
6 0.25 0
5.875 0.375 0
6 0.375 0
5.75 0.375 0
5.875 0.375 0
5.75 0.5 0
5.875 0.5 0
5.875 0.375 0
6 0.375 0
5.875 0.5 0
6 0.5 0
5 0.5 0
5.125 0.5 0
5 0.625 0
5.125 0.625 0
5.125 0.5 0
5.25 0.5 0
5.125 0.625 0
5.25 0.625 0
5 0.625 0
5.125 0.625 0
5 0.75 0
5.125 0.75 0
5.125 0.625 0
5.25 0.625 0
5.125 0.75 0
5.25 0.75 0
5.25 0.5 0
5.375 0.5 0
5.25 0.625 0
5.375 0.625 0
5.375 0.5 0
5.5 0.5 0
5.375 0.625 0
5.5 0.625 0
5.25 0.625 0
5.375 0.625 0
5.25 0.75 0
5.375 0.75 0
5.375 0.625 0
5.5 0.625 0
5.375 0.75 0
5.5 0.75 0
5 0.75 0
5.125 0.75 0
5 0.875 0
5.125 0.875 0
5.125 0.75 0
5.25 0.75 0
5.125 0.875 0
5.25 0.875 0
5 0.875 0
5.125 0.875 0
5 1 0
5.125 1 0
5.125 0.875 0
5.25 0.875 0
5.125 1 0
5.25 1 0
5.25 0.75 0
5.375 0.75 0
5.25 0.875 0
5.375 0.875 0
5.375 0.75 0
5.5 0.75 0
5.375 0.875 0
5.5 0.875 0
5.25 0.875 0
5.375 0.875 0
5.25 1 0
5.375 1 0
5.375 0.875 0
5.5 0.875 0
5.375 1 0
5.5 1 0
5.5 0.5 0
5.625 0.5 0
5.5 0.625 0
5.625 0.625 0
5.625 0.5 0
5.75 0.5 0
5.625 0.625 0
5.75 0.625 0
5.5 0.625 0
5.625 0.625 0
5.5 0.75 0
5.625 0.75 0
5.625 0.625 0
5.75 0.625 0
5.625 0.75 0
5.75 0.75 0
5.75 0.5 0
5.875 0.5 0
5.75 0.625 0
5.875 0.625 0
5.875 0.5 0
6 0.5 0
5.875 0.625 0
6 0.625 0
5.75 0.625 0
5.875 0.625 0
5.75 0.75 0
5.875 0.75 0
5.875 0.625 0
6 0.625 0
5.875 0.75 0
6 0.75 0
5.5 0.75 0
5.625 0.75 0
5.5 0.875 0
5.625 0.875 0
5.625 0.75 0
5.75 0.75 0
5.625 0.875 0
5.75 0.875 0
5.5 0.875 0
5.625 0.875 0
5.5 1 0
5.625 1 0
5.625 0.875 0
5.75 0.875 0
5.625 1 0
5.75 1 0
5.75 0.75 0
5.875 0.75 0
5.75 0.875 0
5.875 0.875 0
5.875 0.75 0
6 0.75 0
5.875 0.875 0
6 0.875 0
5.75 0.875 0
5.875 0.875 0
5.75 1 0
5.875 1 0
5.875 0.875 0
6 0.875 0
5.875 1 0
6 1 0
4 0 0
4.125 0 0
4 0.125 0
4.125 0.125 0
4.125 0 0
4.25 0 0
4.125 0.125 0
4.25 0.125 0
4 0.125 0
4.125 0.125 0
4 0.25 0
4.125 0.25 0
4.125 0.125 0
4.25 0.125 0
4.125 0.25 0
4.25 0.25 0
4.25 0 0
4.375 0 0
4.25 0.125 0
4.375 0.125 0
4.375 0 0
4.5 0 0
4.375 0.125 0
4.5 0.125 0
4.25 0.125 0
4.375 0.125 0
4.25 0.25 0
4.375 0.25 0
4.375 0.125 0
4.5 0.125 0
4.375 0.25 0
4.5 0.25 0
4 0.25 0
4.125 0.25 0
4 0.375 0
4.125 0.375 0
4.125 0.25 0
4.25 0.25 0
4.125 0.375 0
4.25 0.375 0
4 0.375 0
4.125 0.375 0
4 0.5 0
4.125 0.5 0
4.125 0.375 0
4.25 0.375 0
4.125 0.5 0
4.25 0.5 0
4.25 0.25 0
4.375 0.25 0
4.25 0.375 0
4.375 0.375 0
4.375 0.25 0
4.5 0.25 0
4.375 0.375 0
4.5 0.375 0
4.25 0.375 0
4.375 0.375 0
4.25 0.5 0
4.375 0.5 0
4.375 0.375 0
4.5 0.375 0
4.375 0.5 0
4.5 0.5 0
4.5 0 0
4.625 0 0
4.5 0.125 0
4.625 0.125 0
4.625 0 0
4.75 0 0
4.625 0.125 0
4.75 0.125 0
4.5 0.125 0
4.625 0.125 0
4.5 0.25 0
4.625 0.25 0
4.625 0.125 0
4.75 0.125 0
4.625 0.25 0
4.75 0.25 0
4.75 0 0
4.875 0 0
4.75 0.125 0
4.875 0.125 0
4.875 0 0
5 0 0
4.875 0.125 0
5 0.125 0
4.75 0.125 0
4.875 0.125 0
4.75 0.25 0
4.875 0.25 0
4.875 0.125 0
5 0.125 0
4.875 0.25 0
5 0.25 0
4.5 0.25 0
4.625 0.25 0
4.5 0.375 0
4.625 0.375 0
4.625 0.25 0
4.75 0.25 0
4.625 0.375 0
4.75 0.375 0
4.5 0.375 0
4.625 0.375 0
4.5 0.5 0
4.625 0.5 0
4.625 0.375 0
4.75 0.375 0
4.625 0.5 0
4.75 0.5 0
4.75 0.25 0
4.875 0.25 0
4.75 0.375 0
4.875 0.375 0
4.875 0.25 0
5 0.25 0
4.875 0.375 0
5 0.375 0
4.75 0.375 0
4.875 0.375 0
4.75 0.5 0
4.875 0.5 0
4.875 0.375 0
5 0.375 0
4.875 0.5 0
5 0.5 0
4 0.5 0
4.125 0.5 0
4 0.625 0
4.125 0.625 0
4.125 0.5 0
4.25 0.5 0
4.125 0.625 0
4.25 0.625 0
4 0.625 0
4.125 0.625 0
4 0.75 0
4.125 0.75 0
4.125 0.625 0
4.25 0.625 0
4.125 0.75 0
4.25 0.75 0
4.25 0.5 0
4.375 0.5 0
4.25 0.625 0
4.375 0.625 0
4.375 0.5 0
4.5 0.5 0
4.375 0.625 0
4.5 0.625 0
4.25 0.625 0
4.375 0.625 0
4.25 0.75 0
4.375 0.75 0
4.375 0.625 0
4.5 0.625 0
4.375 0.75 0
4.5 0.75 0
4 0.75 0
4.125 0.75 0
4 0.875 0
4.125 0.875 0
4.125 0.75 0
4.25 0.75 0
4.125 0.875 0
4.25 0.875 0
4 0.875 0
4.125 0.875 0
4 1 0
4.125 1 0
4.125 0.875 0
4.25 0.875 0
4.125 1 0
4.25 1 0
4.25 0.75 0
4.375 0.75 0
4.25 0.875 0
4.375 0.875 0
4.375 0.75 0
4.5 0.75 0
4.375 0.875 0
4.5 0.875 0
4.25 0.875 0
4.375 0.875 0
4.25 1 0
4.375 1 0
4.375 0.875 0
4.5 0.875 0
4.375 1 0
4.5 1 0
4.5 0.5 0
4.625 0.5 0
4.5 0.625 0
4.625 0.625 0
4.625 0.5 0
4.75 0.5 0
4.625 0.625 0
4.75 0.625 0
4.5 0.625 0
4.625 0.625 0
4.5 0.75 0
4.625 0.75 0
4.625 0.625 0
4.75 0.625 0
4.625 0.75 0
4.75 0.75 0
4.75 0.5 0
4.875 0.5 0
4.75 0.625 0
4.875 0.625 0
4.875 0.5 0
5 0.5 0
4.875 0.625 0
5 0.625 0
4.75 0.625 0
4.875 0.625 0
4.75 0.75 0
4.875 0.75 0
4.875 0.625 0
5 0.625 0
4.875 0.75 0
5 0.75 0
4.5 0.75 0
4.625 0.75 0
4.5 0.875 0
4.625 0.875 0
4.625 0.75 0
4.75 0.75 0
4.625 0.875 0
4.75 0.875 0
4.5 0.875 0
4.625 0.875 0
4.5 1 0
4.625 1 0
4.625 0.875 0
4.75 0.875 0
4.625 1 0
4.75 1 0
4.75 0.75 0
4.875 0.75 0
4.75 0.875 0
4.875 0.875 0
4.875 0.75 0
5 0.75 0
4.875 0.875 0
5 0.875 0
4.75 0.875 0
4.875 0.875 0
4.75 1 0
4.875 1 0
4.875 0.875 0
5 0.875 0
4.875 1 0
5 1 0
3 0 0
3.125 0 0
3 0.125 0
3.125 0.125 0
3.125 0 0
3.25 0 0
3.125 0.125 0
3.25 0.125 0
3 0.125 0
3.125 0.125 0
3 0.25 0
3.125 0.25 0
3.125 0.125 0
3.25 0.125 0
3.125 0.25 0
3.25 0.25 0
3.25 0 0
3.375 0 0
3.25 0.125 0
3.375 0.125 0
3.375 0 0
3.5 0 0
3.375 0.125 0
3.5 0.125 0
3.25 0.125 0
3.375 0.125 0
3.25 0.25 0
3.375 0.25 0
3.375 0.125 0
3.5 0.125 0
3.375 0.25 0
3.5 0.25 0
3 0.25 0
3.125 0.25 0
3 0.375 0
3.125 0.375 0
3.125 0.25 0
3.25 0.25 0
3.125 0.375 0
3.25 0.375 0
3 0.375 0
3.125 0.375 0
3 0.5 0
3.125 0.5 0
3.125 0.375 0
3.25 0.375 0
3.125 0.5 0
3.25 0.5 0
3.25 0.25 0
3.375 0.25 0
3.25 0.375 0
3.375 0.375 0
3.375 0.25 0
3.5 0.25 0
3.375 0.375 0
3.5 0.375 0
3.25 0.375 0
3.375 0.375 0
3.25 0.5 0
3.375 0.5 0
3.375 0.375 0
3.5 0.375 0
3.375 0.5 0
3.5 0.5 0
3.5 0 0
3.625 0 0
3.5 0.125 0
3.625 0.125 0
3.625 0 0
3.75 0 0
3.625 0.125 0
3.75 0.125 0
3.5 0.125 0
3.625 0.125 0
3.5 0.25 0
3.625 0.25 0
3.625 0.125 0
3.75 0.125 0
3.625 0.25 0
3.75 0.25 0
3.75 0 0
3.875 0 0
3.75 0.125 0
3.875 0.125 0
3.875 0 0
4 0 0
3.875 0.125 0
4 0.125 0
3.75 0.125 0
3.875 0.125 0
3.75 0.25 0
3.875 0.25 0
3.875 0.125 0
4 0.125 0
3.875 0.25 0
4 0.25 0
3.5 0.25 0
3.625 0.25 0
3.5 0.375 0
3.625 0.375 0
3.625 0.25 0
3.75 0.25 0
3.625 0.375 0
3.75 0.375 0
3.5 0.375 0
3.625 0.375 0
3.5 0.5 0
3.625 0.5 0
3.625 0.375 0
3.75 0.375 0
3.625 0.5 0
3.75 0.5 0
3.75 0.25 0
3.875 0.25 0
3.75 0.375 0
3.875 0.375 0
3.875 0.25 0
4 0.25 0
3.875 0.375 0
4 0.375 0
3.75 0.375 0
3.875 0.375 0
3.75 0.5 0
3.875 0.5 0
3.875 0.375 0
4 0.375 0
3.875 0.5 0
4 0.5 0
3 0.5 0
3.125 0.5 0
3 0.625 0
3.125 0.625 0
3.125 0.5 0
3.25 0.5 0
3.125 0.625 0
3.25 0.625 0
3 0.625 0
3.125 0.625 0
3 0.75 0
3.125 0.75 0
3.125 0.625 0
3.25 0.625 0
3.125 0.75 0
3.25 0.75 0
3.25 0.5 0
3.375 0.5 0
3.25 0.625 0
3.375 0.625 0
3.375 0.5 0
3.5 0.5 0
3.375 0.625 0
3.5 0.625 0
3.25 0.625 0
3.375 0.625 0
3.25 0.75 0
3.375 0.75 0
3.375 0.625 0
3.5 0.625 0
3.375 0.75 0
3.5 0.75 0
3 0.75 0
3.125 0.75 0
3 0.875 0
3.125 0.875 0
3.125 0.75 0
3.25 0.75 0
3.125 0.875 0
3.25 0.875 0
3 0.875 0
3.125 0.875 0
3 1 0
3.125 1 0
3.125 0.875 0
3.25 0.875 0
3.125 1 0
3.25 1 0
3.25 0.75 0
3.375 0.75 0
3.25 0.875 0
3.375 0.875 0
3.375 0.75 0
3.5 0.75 0
3.375 0.875 0
3.5 0.875 0
3.25 0.875 0
3.375 0.875 0
3.25 1 0
3.375 1 0
3.375 0.875 0
3.5 0.875 0
3.375 1 0
3.5 1 0
3.5 0.5 0
3.625 0.5 0
3.5 0.625 0
3.625 0.625 0
3.625 0.5 0
3.75 0.5 0
3.625 0.625 0
3.75 0.625 0
3.5 0.625 0
3.625 0.625 0
3.5 0.75 0
3.625 0.75 0
3.625 0.625 0
3.75 0.625 0
3.625 0.75 0
3.75 0.75 0
3.75 0.5 0
3.875 0.5 0
3.75 0.625 0
3.875 0.625 0
3.875 0.5 0
4 0.5 0
3.875 0.625 0
4 0.625 0
3.75 0.625 0
3.875 0.625 0
3.75 0.75 0
3.875 0.75 0
3.875 0.625 0
4 0.625 0
3.875 0.75 0
4 0.75 0
3.5 0.75 0
3.625 0.75 0
3.5 0.875 0
3.625 0.875 0
3.625 0.75 0
3.75 0.75 0
3.625 0.875 0
3.75 0.875 0
3.5 0.875 0
3.625 0.875 0
3.5 1 0
3.625 1 0
3.625 0.875 0
3.75 0.875 0
3.625 1 0
3.75 1 0
3.75 0.75 0
3.875 0.75 0
3.75 0.875 0
3.875 0.875 0
3.875 0.75 0
4 0.75 0
3.875 0.875 0
4 0.875 0
3.75 0.875 0
3.875 0.875 0
3.75 1 0
3.875 1 0
3.875 0.875 0
4 0.875 0
3.875 1 0
4 1 0
2 0 0
2.125 0 0
2 0.125 0
2.125 0.125 0
2.125 0 0
2.25 0 0
2.125 0.125 0
2.25 0.125 0
2 0.125 0
2.125 0.125 0
2 0.25 0
2.125 0.25 0
2.125 0.125 0
2.25 0.125 0
2.125 0.25 0
2.25 0.25 0
2.25 0 0
2.375 0 0
2.25 0.125 0
2.375 0.125 0
2.375 0 0
2.5 0 0
2.375 0.125 0
2.5 0.125 0
2.25 0.125 0
2.375 0.125 0
2.25 0.25 0
2.375 0.25 0
2.375 0.125 0
2.5 0.125 0
2.375 0.25 0
2.5 0.25 0
2 0.25 0
2.125 0.25 0
2 0.375 0
2.125 0.375 0
2.125 0.25 0
2.25 0.25 0
2.125 0.375 0
2.25 0.375 0
2 0.375 0
2.125 0.375 0
2 0.5 0
2.125 0.5 0
2.125 0.375 0
2.25 0.375 0
2.125 0.5 0
2.25 0.5 0
2.25 0.25 0
2.375 0.25 0
2.25 0.375 0
2.375 0.375 0
2.375 0.25 0
[...]
POINT_DATA 1536
VECTORS displacements double
38.5132 -45.1037 0
39.2475 -40.3487 0
33.9529 -45.3223 0
34.5054 -40.5558 0
39.2475 -40.3487 0
39.9567 -35.41 0
34.5054 -40.5558 0
35.0277 -35.6111 0
33.9529 -45.3223 0
34.5054 -40.5558 0
29.8835 -45.4747 0
30.2465 -40.6969 0
34.5054 -40.5558 0
35.0277 -35.6111 0
30.2465 -40.6969 0
30.5954 -35.7379 0
39.9567 -35.41 0
40.6332 -30.2956 0
35.0277 -35.6111 0
35.5336 -30.4817 0
40.6332 -30.2956 0
41.3046 -25.0059 0
35.5336 -30.4817 0
36.0026 -25.1948 0
35.0277 -35.6111 0
35.5336 -30.4817 0
30.5954 -35.7379 0
30.9084 -30.5995 0
35.5336 -30.4817 0
36.0026 -25.1948 0
30.9084 -30.5995 0
31.1976 -25.2822 0
29.8835 -45.4747 0
30.2465 -40.6969 0
25.9859 -45.5483 0
26.1726 -40.7688 0
30.2465 -40.6969 0
30.5954 -35.7379 0
26.1726 -40.7688 0
26.3238 -35.7916 0
25.9859 -45.5483 0
26.1726 -40.7688 0
22.1625 -45.5529 0
22.1618 -40.755 0
26.1726 -40.7688 0
26.3238 -35.7916 0
22.1618 -40.755 0
22.1516 -35.778 0
30.5954 -35.7379 0
30.9084 -30.5995 0
26.3238 -35.7916 0
26.4685 -30.6327 0
30.9084 -30.5995 0
31.1976 -25.2822 0
26.4685 -30.6327 0
26.5694 -25.2993 0
26.3238 -35.7916 0
26.4685 -30.6327 0
22.1516 -35.778 0
22.096 -30.5994 0
26.4685 -30.6327 0
26.5694 -25.2993 0
22.096 -30.5994 0
22.0502 -25.2472 0
41.3046 -25.0059 0
41.958 -19.5417 0
36.0026 -25.1948 0
36.4582 -19.7011 0
41.958 -19.5417 0
42.6922 -13.8223 0
36.4582 -19.7011 0
36.8188 -14.0328 0
36.0026 -25.1948 0
36.4582 -19.7011 0
31.1976 -25.2822 0
31.4399 -19.7775 0
36.4582 -19.7011 0
36.8188 -14.0328 0
31.4399 -19.7775 0
31.6139 -14.0394 0
42.6922 -13.8223 0
43.5133 -7.82185 0
36.8188 -14.0328 0
36.9967 -7.74156 0
43.5133 -7.82185 0
43.9486 0 0
36.9967 -7.74156 0
37.189 -1.40942 0
36.8188 -14.0328 0
36.9967 -7.74156 0
31.6139 -14.0394 0
31.6159 -8.01876 0
36.9967 -7.74156 0
37.189 -1.40942 0
31.6159 -8.01876 0
31.7563 -2.35877 0
31.1976 -25.2822 0
31.4399 -19.7775 0
26.5694 -25.2993 0
26.6438 -19.7838 0
31.4399 -19.7775 0
31.6139 -14.0394 0
26.6438 -19.7838 0
26.5954 -14.1111 0
26.5694 -25.2993 0
26.6438 -19.7838 0
22.0502 -25.2472 0
21.9362 -19.8056 0
26.6438 -19.7838 0
26.5954 -14.1111 0
21.9362 -19.8056 0
21.8171 -14.2933 0
31.6139 -14.0394 0
31.6159 -8.01876 0
26.5954 -14.1111 0
26.5944 -8.45502 0
31.6159 -8.01876 0
31.7563 -2.35877 0
26.5944 -8.45502 0
26.6776 -2.9797 0
26.5954 -14.1111 0
26.5944 -8.45502 0
21.8171 -14.2933 0
21.7704 -8.79726 0
26.5944 -8.45502 0
26.6776 -2.9797 0
21.7704 -8.79726 0
21.8434 -3.55518 0
22.1625 -45.5529 0
22.1618 -40.755 0
18.3401 -45.4785 0
18.147 -40.683 0
22.1618 -40.755 0
22.1516 -35.778 0
18.147 -40.683 0
17.9485 -35.6769 0
18.3401 -45.4785 0
18.147 -40.683 0
14.4209 -45.3306 0
14.0473 -40.5369 0
18.147 -40.683 0
17.9485 -35.6769 0
14.0473 -40.5369 0
13.6708 -35.5624 0
22.1516 -35.778 0
22.096 -30.5994 0
17.9485 -35.6769 0
17.7551 -30.513 0
22.096 -30.5994 0
22.0502 -25.2472 0
17.7551 -30.513 0
17.5246 -25.2265 0
17.9485 -35.6769 0
17.7551 -30.513 0
13.6708 -35.5624 0
13.2848 -30.4352 0
17.7551 -30.513 0
17.5246 -25.2265 0
13.2848 -30.4352 0
12.9408 -25.1944 0
14.4209 -45.3306 0
14.0473 -40.5369 0
10.2867 -45.1426 0
9.71191 -40.3657 0
14.0473 -40.5369 0
13.6708 -35.5624 0
9.71191 -40.3657 0
9.16818 -35.4282 0
10.2867 -45.1426 0
9.71191 -40.3657 0
5.78251 -44.9236 0
5.11599 -40.1623 0
9.71191 -40.3657 0
9.16818 -35.4282 0
5.11599 -40.1623 0
4.55038 -35.2893 0
13.6708 -35.5624 0
13.2848 -30.4352 0
9.16818 -35.4282 0
8.71455 -30.3362 0
13.2848 -30.4352 0
12.9408 -25.1944 0
8.71455 -30.3362 0
8.36333 -25.1759 0
9.16818 -35.4282 0
8.71455 -30.3362 0
4.55038 -35.2893 0
4.01904 -30.2525 0
8.71455 -30.3362 0
8.36333 -25.1759 0
4.01904 -30.2525 0
3.49191 -25.0691 0
22.0502 -25.2472 0
21.9362 -19.8056 0
17.5246 -25.2265 0
17.2947 -19.8542 0
21.9362 -19.8056 0
21.8171 -14.2933 0
17.2947 -19.8542 0
17.1514 -14.4557 0
17.5246 -25.2265 0
17.2947 -19.8542 0
12.9408 -25.1944 0
12.7061 -19.9046 0
17.2947 -19.8542 0
17.1514 -14.4557 0
12.7061 -19.9046 0
12.5255 -14.5701 0
21.8171 -14.2933 0
21.7704 -8.79726 0
17.1514 -14.4557 0
17.0887 -9.08692 0
21.7704 -8.79726 0
21.8434 -3.55518 0
17.0887 -9.08692 0
17.1542 -4.03022 0
17.1514 -14.4557 0
17.0887 -9.08692 0
12.5255 -14.5701 0
12.4495 -9.30031 0
17.0887 -9.08692 0
17.1542 -4.03022 0
12.4495 -9.30031 0
12.4749 -4.3195 0
12.9408 -25.1944 0
12.7061 -19.9046 0
8.36333 -25.1759 0
8.04359 -19.9023 0
12.7061 -19.9046 0
12.5255 -14.5701 0
8.04359 -19.9023 0
7.81189 -14.6026 0
8.36333 -25.1759 0
8.04359 -19.9023 0
3.49191 -25.0691 0
3.07638 -19.8201 0
8.04359 -19.9023 0
7.81189 -14.6026 0
3.07638 -19.8201 0
2.82094 -14.568 0
12.5255 -14.5701 0
12.4495 -9.30031 0
7.81189 -14.6026 0
7.69804 -9.40387 0
12.4495 -9.30031 0
12.4749 -4.3195 0
7.69804 -9.40387 0
7.67867 -4.41336 0
7.81189 -14.6026 0
7.69804 -9.40387 0
2.82094 -14.568 0
2.73535 -9.42067 0
7.69804 -9.40387 0
7.67867 -4.41336 0
2.73535 -9.42067 0
2.72967 -4.41956 0
31.435 -75.5943 0
32.4474 -72.6128 0
28.6921 -75.8905 0
29.4287 -72.8982 0
32.4474 -72.6128 0
33.4177 -69.3663 0
29.4287 -72.8982 0
30.1445 -69.6409 0
28.6921 -75.8905 0
29.4287 -72.8982 0
26.3695 -76.0865 0
26.8298 -73.0877 0
29.4287 -72.8982 0
30.1445 -69.6409 0
26.8298 -73.0877 0
27.2915 -69.8227 0
33.4177 -69.3663 0
34.3503 -65.8743 0
30.1445 -69.6409 0
30.8372 -66.1387 0
34.3503 -65.8743 0
35.2493 -62.1495 0
30.8372 -66.1387 0
31.5058 -62.4053 0
30.1445 -69.6409 0
30.8372 -66.1387 0
27.2915 -69.8227 0
27.7524 -66.3117 0
30.8372 -66.1387 0
31.5058 -62.4053 0
27.7524 -66.3117 0
28.2073 -62.5714 0
26.3695 -76.0865 0
26.8298 -73.0877 0
24.272 -76.181 0
24.4561 -73.1779 0
26.8298 -73.0877 0
27.2915 -69.8227 0
24.4561 -73.1779 0
24.657 -69.9104 0
24.272 -76.181 0
24.4561 -73.1779 0
22.2427 -76.1754 0
22.1649 -73.1696 0
24.4561 -73.1779 0
24.657 -69.9104 0
22.1649 -73.1696 0
22.1166 -69.9047 0
27.2915 -69.8227 0
27.7524 -66.3117 0
24.657 -69.9104 0
24.8741 -66.3972 0
27.7524 -66.3117 0
28.2073 -62.5714 0
24.8741 -66.3972 0
25.1025 -62.6546 0
24.657 -69.9104 0
24.8741 -66.3972 0
22.1166 -69.9047 0
22.095 -66.3963 0
24.8741 -66.3972 0
25.1025 -62.6546 0
22.095 -66.3963 0
22.0941 -62.657 0
35.2493 -62.1495 0
36.1144 -58.2006 0
31.5058 -62.4053 0
32.1529 -58.4474 0
36.1144 -58.2006 0
36.9459 -54.038 0
32.1529 -58.4474 0
32.7778 -54.2751 0
31.5058 -62.4053 0
32.1529 -58.4474 0
28.2073 -62.5714 0
28.6504 -58.6128 0
32.1529 -58.4474 0
32.7778 -54.2751 0
28.6504 -58.6128 0
29.0795 -54.4382 0
36.9459 -54.038 0
37.7457 -49.6704 0
32.7778 -54.2751 0
33.3775 -49.8983 0
37.7457 -49.6704 0
38.5132 -45.1037 0
33.3775 -49.8983 0
33.9529 -45.3223 0
32.7778 -54.2751 0
33.3775 -49.8983 0
29.0795 -54.4382 0
29.4925 -50.055 0
33.3775 -49.8983 0
33.9529 -45.3223 0
29.4925 -50.055 0
29.8835 -45.4747 0
28.2073 -62.5714 0
28.6504 -58.6128 0
25.1025 -62.6546 0
25.3355 -58.6939 0
28.6504 -58.6128 0
29.0795 -54.4382 0
25.3355 -58.6939 0
25.5644 -54.5222 0
25.1025 -62.6546 0
25.3355 -58.6939 0
22.0941 -62.657 0
22.1078 -58.6971 0
25.3355 -58.6939 0
25.5644 -54.5222 0
22.1078 -58.6971 0
22.1304 -54.5242 0
29.0795 -54.4382 0
29.4925 -50.055 0
25.5644 -54.5222 0
25.7818 -50.1389 0
29.4925 -50.055 0
29.8835 -45.4747 0
25.7818 -50.1389 0
25.9859 -45.5483 0
25.5644 -54.5222 0
25.7818 -50.1389 0
22.1304 -54.5242 0
22.1525 -50.143 0
25.7818 -50.1389 0
25.9859 -45.5483 0
22.1525 -50.143 0
22.1625 -45.5529 0
22.2427 -76.1754 0
22.1649 -73.1696 0
20.1794 -76.0762 0
19.8621 -73.0694 0
22.1649 -73.1696 0
22.1166 -69.9047 0
19.8621 -73.0694 0
19.5799 -69.8139 0
20.1794 -76.0762 0
19.8621 -73.0694 0
18.008 -75.8926 0
17.4697 -72.8941 0
19.8621 -73.0694 0
19.5799 -69.8139 0
17.4697 -72.8941 0
16.9622 -69.6529 0
22.1166 -69.9047 0
22.095 -66.3963 0
19.5799 -69.8139 0
19.328 -66.3171 0
22.095 -66.3963 0
22.0941 -62.657 0
19.328 -66.3171 0
19.1006 -62.5865 0
19.5799 -69.8139 0
19.328 -66.3171 0
16.9622 -69.6529 0
16.4831 -66.1705 0
19.328 -66.3171 0
19.1006 -62.5865 0
16.4831 -66.1705 0
16.0295 -62.4505 0
18.008 -75.8926 0
17.4697 -72.8941 0
15.6174 -75.6532 0
14.8619 -72.6646 0
17.4697 -72.8941 0
16.9622 -69.6529 0
14.8619 -72.6646 0
14.1329 -69.4355 0
15.6174 -75.6532 0
14.8619 -72.6646 0
12.8188 -75.3579 0
11.8314 -72.3775 0
14.8619 -72.6646 0
14.1329 -69.4355 0
11.8314 -72.3775 0
10.8684 -69.1571 0
16.9622 -69.6529 0
16.4831 -66.1705 0
14.1329 -69.4355 0
13.4303 -65.9647 0
16.4831 -66.1705 0
16.0295 -62.4505 0
13.4303 -65.9647 0
12.7541 -62.2543 0
14.1329 -69.4355 0
13.4303 -65.9647 0
10.8684 -69.1571 0
9.93266 -65.6956 0
13.4303 -65.9647 0
12.7541 -62.2543 0
9.93266 -65.6956 0
9.02695 -61.9948 0
22.0941 -62.657 0
22.1078 -58.6971 0
19.1006 -62.5865 0
18.8925 -58.6295 0
22.1078 -58.6971 0
22.1304 -54.5242 0
18.8925 -58.6295 0
18.6997 -54.4542 0
19.1006 -62.5865 0
18.8925 -58.6295 0
16.0295 -62.4505 0
15.599 -58.4984 0
18.8925 -58.6295 0
18.6997 -54.4542 0
15.599 -58.4984 0
15.1897 -54.3215 0
22.1304 -54.5242 0
22.1525 -50.143 0
18.6997 -54.4542 0
18.5189 -50.0687 0
22.1525 -50.143 0
22.1625 -45.5529 0
18.5189 -50.0687 0
18.3401 -45.4785 0
18.6997 -54.4542 0
18.5189 -50.0687 0
15.1897 -54.3215 0
14.7985 -49.9286 0
18.5189 -50.0687 0
18.3401 -45.4785 0
14.7985 -49.9286 0
14.4209 -45.3306 0
16.0295 -62.4505 0
15.599 -58.4984 0
12.7541 -62.2543 0
12.1036 -58.3086 0
15.599 -58.4984 0
15.1897 -54.3215 0
12.1036 -58.3086 0
11.4776 -54.1341 0
12.7541 -62.2543 0
12.1036 -58.3086 0
9.02695 -61.9948 0
8.15412 -58.0588 0
12.1036 -58.3086 0
11.4776 -54.1341 0
8.15412 -58.0588 0
7.31775 -53.8941 0
15.1897 -54.3215 0
14.7985 -49.9286 0
11.4776 -54.1341 0
10.8737 -49.7405 0
14.7985 -49.9286 0
14.4209 -45.3306 0
10.8737 -49.7405 0
10.2867 -45.1426 0
11.4776 -54.1341 0
10.8737 -49.7405 0
7.31775 -53.8941 0
6.52353 -49.5103 0
10.8737 -49.7405 0
10.2867 -45.1426 0
6.52353 -49.5103 0
5.78251 -44.9236 0
21.9743 -87.5138 0
23.2486 -87.3123 0
21.9743 -87.8805 0
22.8705 -87.6773 0
23.2486 -87.3123 0
24.5097 -86.7144 0
22.8705 -87.6773 0
23.7635 -87.0744 0
21.9743 -87.8805 0
22.8705 -87.6773 0
21.9743 -88.3068 0
22.6767 -88.082 0
22.8705 -87.6773 0
23.7635 -87.0744 0
22.6767 -88.082 0
23.332 -87.4244 0
24.5097 -86.7144 0
25.7472 -85.7368 0
23.7635 -87.0744 0
24.6474 -86.0888 0
25.7472 -85.7368 0
26.9562 -84.3964 0
24.6474 -86.0888 0
25.5119 -84.7386 0
23.7635 -87.0744 0
24.6474 -86.0888 0
23.332 -87.4244 0
23.9199 -86.3865 0
24.6474 -86.0888 0
25.5119 -84.7386 0
23.9199 -86.3865 0
24.4557 -85.0034 0
21.9743 -88.3068 0
22.6767 -88.082 0
21.9743 -88.8126 0
22.489 -88.5669 0
22.6767 -88.082 0
23.332 -87.4244 0
22.489 -88.5669 0
22.9424 -87.8535 0
21.9743 -88.8126 0
22.489 -88.5669 0
21.9743 -89.3145 0
22.2854 -89.047 0
22.489 -88.5669 0
22.9424 -87.8535 0
22.2854 -89.047 0
22.5203 -88.265 0
23.332 -87.4244 0
23.9199 -86.3865 0
22.9424 -87.8535 0
23.2976 -86.7299 0
23.9199 -86.3865 0
24.4557 -85.0034 0
23.2976 -86.7299 0
23.5702 -85.2584 0
22.9424 -87.8535 0
23.2976 -86.7299 0
22.5203 -88.265 0
22.6363 -87.0374 0
23.2976 -86.7299 0
23.5702 -85.2584 0
22.6363 -87.0374 0
22.6425 -85.451 0
26.9562 -84.3964 0
28.1345 -82.702 0
25.5119 -84.7386 0
26.3475 -83.0337 0
28.1345 -82.702 0
29.2759 -80.661 0
26.3475 -83.0337 0
27.1559 -80.9805 0
25.5119 -84.7386 0
26.3475 -83.0337 0
24.4557 -85.0034 0
24.9653 -83.2748 0
26.3475 -83.0337 0
27.1559 -80.9805 0
24.9653 -83.2748 0
25.4472 -81.2055 0
29.2759 -80.661 0
30.3776 -78.2859 0
27.1559 -80.9805 0
27.9353 -78.5942 0
30.3776 -78.2859 0
31.435 -75.5943 0
27.9353 -78.5942 0
28.6921 -75.8905 0
27.1559 -80.9805 0
27.9353 -78.5942 0
25.4472 -81.2055 0
25.9079 -78.7991 0
27.9353 -78.5942 0
28.6921 -75.8905 0
25.9079 -78.7991 0
26.3695 -76.0865 0
24.4557 -85.0034 0
24.9653 -83.2748 0
23.5702 -85.2584 0
23.7764 -83.4554 0
24.9653 -83.2748 0
25.4472 -81.2055 0
23.7764 -83.4554 0
23.9403 -81.3317 0
23.5702 -85.2584 0
23.7764 -83.4554 0
22.6425 -85.451 0
22.5716 -83.5492 0
23.7764 -83.4554 0
23.9403 -81.3317 0
22.5716 -83.5492 0
22.4615 -81.3666 0
25.4472 -81.2055 0
25.9079 -78.7991 0
23.9403 -81.3317 0
24.103 -78.9018 0
25.9079 -78.7991 0
26.3695 -76.0865 0
24.103 -78.9018 0
24.272 -76.181 0
23.9403 -81.3317 0
24.103 -78.9018 0
22.4615 -81.3666 0
22.3452 -78.9098 0
24.103 -78.9018 0
24.272 -76.181 0
22.3452 -78.9098 0
22.2427 -76.1754 0
21.9743 -89.3145 0
22.2854 -89.047 0
21.9743 -89.8134 0
22.0567 -89.5076 0
22.2854 -89.047 0
22.5203 -88.265 0
22.0567 -89.5076 0
22.0394 -88.615 0
21.9743 -89.8134 0
22.0567 -89.5076 0
21.9743 -90.2962 0
21.7508 -89.93 0
22.0567 -89.5076 0
22.0394 -88.615 0
21.7508 -89.93 0
21.4246 -88.816 0
22.5203 -88.265 0
22.6363 -87.0374 0
22.0394 -88.615 0
21.875 -87.2392 0
22.6363 -87.0374 0
22.6425 -85.451 0
21.875 -87.2392 0
21.6079 -85.5298 0
22.0394 -88.615 0
21.875 -87.2392 0
21.4246 -88.816 0
20.9568 -87.2823 0
21.875 -87.2392 0
21.6079 -85.5298 0
20.9568 -87.2823 0
20.391 -85.4763 0
21.9743 -90.2962 0
21.7508 -89.93 0
21.9743 -90.759 0
21.3575 -90.1244 0
21.7508 -89.93 0
21.4246 -88.816 0
21.3575 -90.1244 0
20.584 -88.7655 0
21.9743 -90.759 0
21.3575 -90.1244 0
21.9743 -90.7457 0
20.5019 -89.9745 0
21.3575 -90.1244 0
20.584 -88.7655 0
20.5019 -89.9745 0
19.2242 -88.4393 0
21.4246 -88.816 0
20.9568 -87.2823 0
20.584 -88.7655 0
19.7261 -87.1313 0
20.9568 -87.2823 0
20.391 -85.4763 0
19.7261 -87.1313 0
18.8694 -85.2832 0
20.584 -88.7655 0
19.7261 -87.1313 0
19.2242 -88.4393 0
18.0768 -86.8108 0
19.7261 -87.1313 0
18.8694 -85.2832 0
18.0768 -86.8108 0
16.9786 -84.9633 0
22.6425 -85.451 0
22.5716 -83.5492 0
21.6079 -85.5298 0
21.2678 -83.5465 0
22.5716 -83.5492 0
22.4615 -81.3666 0
21.2678 -83.5465 0
20.8991 -81.3122 0
21.6079 -85.5298 0
21.2678 -83.5465 0
20.391 -85.4763 0
19.7896 -83.4356 0
21.2678 -83.5465 0
20.8991 -81.3122 0
19.7896 -83.4356 0
19.1788 -81.1631 0
22.4615 -81.3666 0
22.3452 -78.9098 0
20.8991 -81.3122 0
20.5295 -78.8248 0
22.3452 -78.9098 0
22.2427 -76.1754 0
20.5295 -78.8248 0
20.1794 -76.0762 0
20.8991 -81.3122 0
20.5295 -78.8248 0
19.1788 -81.1631 0
18.5792 -78.6492 0
20.5295 -78.8248 0
20.1794 -76.0762 0
18.5792 -78.6492 0
18.008 -75.8926 0
20.391 -85.4763 0
19.7896 -83.4356 0
18.8694 -85.2832 0
18.0266 -83.2147 0
19.7896 -83.4356 0
19.1788 -81.1631 0
18.0266 -83.2147 0
17.202 -80.9235 0
18.8694 -85.2832 0
18.0266 -83.2147 0
16.9786 -84.9633 0
15.9077 -82.8999 0
18.0266 -83.2147 0
17.202 -80.9235 0
15.9077 -82.8999 0
14.858 -80.6143 0
19.1788 -81.1631 0
18.5792 -78.6492 0
17.202 -80.9235 0
16.3982 -78.4046 0
18.5792 -78.6492 0
18.008 -75.8926 0
16.3982 -78.4046 0
15.6174 -75.6532 0
17.202 -80.9235 0
16.3982 -78.4046 0
14.858 -80.6143 0
13.8282 -78.102 0
16.3982 -78.4046 0
15.6174 -75.6532 0
13.8282 -78.102 0
12.8188 -75.3579 0
12.5136 -75.5943 0
13.571 -78.2859 0
15.2566 -75.8905 0
16.0133 -78.5942 0
13.571 -78.2859 0
14.6727 -80.661 0
16.0133 -78.5942 0
16.7927 -80.9805 0
15.2566 -75.8905 0
16.0133 -78.5942 0
17.5791 -76.0865 0
18.0408 -78.7991 0
16.0133 -78.5942 0
16.7927 -80.9805 0
18.0408 -78.7991 0
18.5014 -81.2055 0
14.6727 -80.661 0
15.8141 -82.702 0
16.7927 -80.9805 0
17.6012 -83.0337 0
15.8141 -82.702 0
16.9924 -84.3964 0
17.6012 -83.0337 0
18.4367 -84.7386 0
16.7927 -80.9805 0
17.6012 -83.0337 0
18.5014 -81.2055 0
18.9833 -83.2748 0
17.6012 -83.0337 0
18.4367 -84.7386 0
18.9833 -83.2748 0
19.4929 -85.0034 0
17.5791 -76.0865 0
18.0408 -78.7991 0
19.6766 -76.181 0
19.8456 -78.9018 0
18.0408 -78.7991 0
18.5014 -81.2055 0
19.8456 -78.9018 0
20.0084 -81.3317 0
19.6766 -76.181 0
19.8456 -78.9018 0
21.7059 -76.1754 0
21.6034 -78.9098 0
19.8456 -78.9018 0
20.0084 -81.3317 0
21.6034 -78.9098 0
21.4871 -81.3666 0
18.5014 -81.2055 0
18.9833 -83.2748 0
20.0084 -81.3317 0
20.1722 -83.4554 0
18.9833 -83.2748 0
19.4929 -85.0034 0
20.1722 -83.4554 0
20.3784 -85.2584 0
20.0084 -81.3317 0
20.1722 -83.4554 0
21.4871 -81.3666 0
21.377 -83.5492 0
20.1722 -83.4554 0
20.3784 -85.2584 0
21.377 -83.5492 0
21.3061 -85.451 0
16.9924 -84.3964 0
18.2014 -85.7368 0
18.4367 -84.7386 0
19.3012 -86.0888 0
18.2014 -85.7368 0
19.4389 -86.7144 0
19.3012 -86.0888 0
20.1852 -87.0744 0
18.4367 -84.7386 0
19.3012 -86.0888 0
19.4929 -85.0034 0
20.0287 -86.3865 0
19.3012 -86.0888 0
20.1852 -87.0744 0
20.0287 -86.3865 0
20.6166 -87.4244 0
19.4389 -86.7144 0
20.7 -87.3123 0
20.1852 -87.0744 0
21.0781 -87.6773 0
20.7 -87.3123 0
21.9743 -87.5138 0
21.0781 -87.6773 0
21.9743 -87.8805 0
20.1852 -87.0744 0
21.0781 -87.6773 0
20.6166 -87.4244 0
21.2719 -88.082 0
21.0781 -87.6773 0
21.9743 -87.8805 0
21.2719 -88.082 0
21.9743 -88.3068 0
19.4929 -85.0034 0
20.0287 -86.3865 0
20.3784 -85.2584 0
20.651 -86.7299 0
20.0287 -86.3865 0
20.6166 -87.4244 0
20.651 -86.7299 0
21.0062 -87.8535 0
20.3784 -85.2584 0
20.651 -86.7299 0
21.3061 -85.451 0
21.3123 -87.0374 0
20.651 -86.7299 0
21.0062 -87.8535 0
21.3123 -87.0374 0
21.4283 -88.265 0
20.6166 -87.4244 0
21.2719 -88.082 0
21.0062 -87.8535 0
21.4596 -88.5669 0
21.2719 -88.082 0
21.9743 -88.3068 0
21.4596 -88.5669 0
21.9743 -88.8126 0
21.0062 -87.8535 0
21.4596 -88.5669 0
21.4283 -88.265 0
21.6632 -89.047 0
21.4596 -88.5669 0
21.9743 -88.8126 0
21.6632 -89.047 0
21.9743 -89.3145 0
21.7059 -76.1754 0
21.6034 -78.9098 0
23.7692 -76.0762 0
23.4191 -78.8248 0
21.6034 -78.9098 0
21.4871 -81.3666 0
23.4191 -78.8248 0
23.0495 -81.3122 0
23.7692 -76.0762 0
23.4191 -78.8248 0
25.9406 -75.8926 0
25.3694 -78.6492 0
23.4191 -78.8248 0
23.0495 -81.3122 0
25.3694 -78.6492 0
24.7698 -81.1631 0
21.4871 -81.3666 0
21.377 -83.5492 0
23.0495 -81.3122 0
22.6808 -83.5465 0
21.377 -83.5492 0
21.3061 -85.451 0
22.6808 -83.5465 0
22.3407 -85.5298 0
23.0495 -81.3122 0
22.6808 -83.5465 0
24.7698 -81.1631 0
24.159 -83.4356 0
22.6808 -83.5465 0
22.3407 -85.5298 0
24.159 -83.4356 0
23.5576 -85.4763 0
25.9406 -75.8926 0
25.3694 -78.6492 0
28.3312 -75.6532 0
27.5505 -78.4046 0
25.3694 -78.6492 0
24.7698 -81.1631 0
27.5505 -78.4046 0
26.7466 -80.9235 0
28.3312 -75.6532 0
27.5505 -78.4046 0
31.1298 -75.3579 0
30.1204 -78.102 0
27.5505 -78.4046 0
26.7466 -80.9235 0
30.1204 -78.102 0
29.0906 -80.6143 0
24.7698 -81.1631 0
24.159 -83.4356 0
26.7466 -80.9235 0
25.922 -83.2147 0
24.159 -83.4356 0
23.5576 -85.4763 0
25.922 -83.2147 0
25.0792 -85.2832 0
26.7466 -80.9235 0
25.922 -83.2147 0
29.0906 -80.6143 0
28.0409 -82.8999 0
25.922 -83.2147 0
25.0792 -85.2832 0
28.0409 -82.8999 0
26.97 -84.9633 0
21.3061 -85.451 0
21.3123 -87.0374 0
22.3407 -85.5298 0
22.0736 -87.2392 0
21.3123 -87.0374 0
21.4283 -88.265 0
22.0736 -87.2392 0
21.9092 -88.615 0
22.3407 -85.5298 0
22.0736 -87.2392 0
23.5576 -85.4763 0
22.9918 -87.2823 0
22.0736 -87.2392 0
21.9092 -88.615 0
22.9918 -87.2823 0
22.524 -88.816 0
21.4283 -88.265 0
21.6632 -89.047 0
21.9092 -88.615 0
21.8919 -89.5076 0
21.6632 -89.047 0
21.9743 -89.3145 0
21.8919 -89.5076 0
21.9743 -89.8134 0
21.9092 -88.615 0
21.8919 -89.5076 0
22.524 -88.816 0
22.1978 -89.93 0
21.8919 -89.5076 0
21.9743 -89.8134 0
22.1978 -89.93 0
21.9743 -90.2962 0
23.5576 -85.4763 0
22.9918 -87.2823 0
25.0792 -85.2832 0
24.2225 -87.1313 0
22.9918 -87.2823 0
22.524 -88.816 0
24.2225 -87.1313 0
23.3646 -88.7655 0
25.0792 -85.2832 0
24.2225 -87.1313 0
26.97 -84.9633 0
25.8718 -86.8108 0
24.2225 -87.1313 0
23.3646 -88.7655 0
25.8718 -86.8108 0
24.7244 -88.4393 0
22.524 -88.816 0
22.1978 -89.93 0
23.3646 -88.7655 0
22.5911 -90.1244 0
22.1978 -89.93 0
21.9743 -90.2962 0
22.5911 -90.1244 0
21.9743 -90.759 0
23.3646 -88.7655 0
22.5911 -90.1244 0
24.7244 -88.4393 0
23.4467 -89.9745 0
22.5911 -90.1244 0
21.9743 -90.759 0
23.4467 -89.9745 0
21.9743 -90.7457 0
5.4354 -45.1037 0
6.20292 -49.6704 0
9.9957 -45.3223 0
10.5711 -49.8983 0
6.20292 -49.6704 0
7.00272 -54.038 0
10.5711 -49.8983 0
11.1708 -54.2751 0
9.9957 -45.3223 0
10.5711 -49.8983 0
14.0651 -45.4747 0
14.4561 -50.055 0
10.5711 -49.8983 0
11.1708 -54.2751 0
14.4561 -50.055 0
14.8691 -54.4382 0
7.00272 -54.038 0
7.83418 -58.2006 0
11.1708 -54.2751 0
11.7957 -58.4474 0
7.83418 -58.2006 0
8.69932 -62.1495 0
11.7957 -58.4474 0
12.4428 -62.4053 0
11.1708 -54.2751 0
11.7957 -58.4474 0
14.8691 -54.4382 0
15.2982 -58.6128 0
11.7957 -58.4474 0
12.4428 -62.4053 0
15.2982 -58.6128 0
15.7413 -62.5714 0
14.0651 -45.4747 0
14.4561 -50.055 0
17.9627 -45.5483 0
18.1668 -50.1389 0
14.4561 -50.055 0
14.8691 -54.4382 0
18.1668 -50.1389 0