# vtk DataFile Version 3.0
#This file was generated by the deal.II library on 2020/9/2 at 8:40:18
ASCII
DATASET UNSTRUCTURED_GRID

POINTS 1536 double
5 0 0
5.125 0 0
5 0.125 0
5.125 0.125 0
5.125 0 0
5.25 0 0
5.125 0.125 0
5.25 0.125 0
5 0.125 0
5.125 0.125 0
5 0.25 0
5.125 0.25 0
5.125 0.125 0
5.25 0.125 0
5.125 0.25 0
5.25 0.25 0
5.25 0 0
5.375 0 0
5.25 0.125 0
5.375 0.125 0
5.375 0 0
5.5 0 0
5.375 0.125 0
5.5 0.125 0
5.25 0.125 0
5.375 0.125 0
5.25 0.25 0
5.375 0.25 0
5.375 0.125 0
5.5 0.125 0
5.375 0.25 0
5.5 0.25 0
5 0.25 0
5.125 0.25 0
5 0.375 0
5.125 0.375 0
5.125 0.25 0
5.25 0.25 0
5.125 0.375 0
5.25 0.375 0
5 0.375 0
5.125 0.375 0
5 0.5 0
5.125 0.5 0
5.125 0.375 0
5.25 0.375 0
5.125 0.5 0
5.25 0.5 0
5.25 0.25 0
5.375 0.25 0
5.25 0.375 0
5.375 0.375 0
5.375 0.25 0
5.5 0.25 0
5.375 0.375 0
5.5 0.375 0
5.25 0.375 0
5.375 0.375 0
5.25 0.5 0
5.375 0.5 0
5.375 0.375 0
5.5 0.375 0
5.375 0.5 0
5.5 0.5 0
5.5 0 0
5.625 0 0
5.5 0.125 0
5.625 0.125 0
5.625 0 0
5.75 0 0
5.625 0.125 0
5.75 0.125 0
5.5 0.125 0
5.625 0.125 0
5.5 0.25 0
5.625 0.25 0
5.625 0.125 0
5.75 0.125 0
5.625 0.25 0
5.75 0.25 0
5.75 0 0
5.875 0 0
5.75 0.125 0
5.875 0.125 0
5.875 0 0
6 0 0
5.875 0.125 0
6 0.125 0
5.75 0.125 0
5.875 0.125 0
5.75 0.25 0
5.875 0.25 0
5.875 0.125 0
6 0.125 0
5.875 0.25 0
6 0.25 0
5.5 0.25 0
5.625 0.25 0
5.5 0.375 0
5.625 0.375 0
5.625 0.25 0
5.75 0.25 0
5.625 0.375 0
5.75 0.375 0
5.5 0.375 0
5.625 0.375 0
5.5 0.5 0
5.625 0.5 0
5.625 0.375 0
5.75 0.375 0
5.625 0.5 0
5.75 0.5 0
5.75 0.25 0
5.875 0.25 0
5.75 0.375 0
5.875 0.375 0
5.875 0.25 0
6 0.25 0
5.875 0.375 0
6 0.375 0
5.75 0.375 0
5.875 0.375 0
5.75 0.5 0
5.875 0.5 0
5.875 0.375 0
6 0.375 0
5.875 0.5 0
6 0.5 0
5 0.5 0
5.125 0.5 0
5 0.625 0
5.125 0.625 0
5.125 0.5 0
5.25 0.5 0
5.125 0.625 0
5.25 0.625 0
5 0.625 0
5.125 0.625 0
5 0.75 0
5.125 0.75 0
5.125 0.625 0
5.25 0.625 0
5.125 0.75 0
5.25 0.75 0
5.25 0.5 0
5.375 0.5 0
5.25 0.625 0
5.375 0.625 0
5.375 0.5 0
5.5 0.5 0
5.375 0.625 0
5.5 0.625 0
5.25 0.625 0
5.375 0.625 0
5.25 0.75 0
5.375 0.75 0
5.375 0.625 0
5.5 0.625 0
5.375 0.75 0
5.5 0.75 0
5 0.75 0
5.125 0.75 0
5 0.875 0
5.125 0.875 0
5.125 0.75 0
5.25 0.75 0
5.125 0.875 0
5.25 0.875 0
5 0.875 0
5.125 0.875 0
5 1 0
5.125 1 0
5.125 0.875 0
5.25 0.875 0
5.125 1 0
5.25 1 0
5.25 0.75 0
5.375 0.75 0
5.25 0.875 0
5.375 0.875 0
5.375 0.75 0
5.5 0.75 0
5.375 0.875 0
5.5 0.875 0
5.25 0.875 0
5.375 0.875 0
5.25 1 0
5.375 1 0
5.375 0.875 0
5.5 0.875 0
5.375 1 0
5.5 1 0
5.5 0.5 0
5.625 0.5 0
5.5 0.625 0
5.625 0.625 0
5.625 0.5 0
5.75 0.5 0
5.625 0.625 0
5.75 0.625 0
5.5 0.625 0
5.625 0.625 0
5.5 0.75 0
5.625 0.75 0
5.625 0.625 0
5.75 0.625 0
5.625 0.75 0
5.75 0.75 0
5.75 0.5 0
5.875 0.5 0
5.75 0.625 0
5.875 0.625 0
5.875 0.5 0
6 0.5 0
5.875 0.625 0
6 0.625 0
5.75 0.625 0
5.875 0.625 0
5.75 0.75 0
5.875 0.75 0
5.875 0.625 0
6 0.625 0
5.875 0.75 0
6 0.75 0
5.5 0.75 0
5.625 0.75 0
5.5 0.875 0
5.625 0.875 0
5.625 0.75 0
5.75 0.75 0
5.625 0.875 0
5.75 0.875 0
5.5 0.875 0
5.625 0.875 0
5.5 1 0
5.625 1 0
5.625 0.875 0
5.75 0.875 0
5.625 1 0
5.75 1 0
5.75 0.75 0
5.875 0.75 0
5.75 0.875 0
5.875 0.875 0
5.875 0.75 0
6 0.75 0
5.875 0.875 0
6 0.875 0
5.75 0.875 0
5.875 0.875 0
5.75 1 0
5.875 1 0
5.875 0.875 0
6 0.875 0
5.875 1 0
6 1 0
4 0 0
4.125 0 0
4 0.125 0
4.125 0.125 0
4.125 0 0
4.25 0 0
4.125 0.125 0
4.25 0.125 0
4 0.125 0
4.125 0.125 0
4 0.25 0
4.125 0.25 0
4.125 0.125 0
4.25 0.125 0
4.125 0.25 0
4.25 0.25 0
4.25 0 0
4.375 0 0
4.25 0.125 0
4.375 0.125 0
4.375 0 0
4.5 0 0
4.375 0.125 0
4.5 0.125 0
4.25 0.125 0
4.375 0.125 0
4.25 0.25 0
4.375 0.25 0
4.375 0.125 0
4.5 0.125 0
4.375 0.25 0
4.5 0.25 0
4 0.25 0
4.125 0.25 0
4 0.375 0
4.125 0.375 0
4.125 0.25 0
4.25 0.25 0
4.125 0.375 0
4.25 0.375 0
4 0.375 0
4.125 0.375 0
4 0.5 0
4.125 0.5 0
4.125 0.375 0
4.25 0.375 0
4.125 0.5 0
4.25 0.5 0
4.25 0.25 0
4.375 0.25 0
4.25 0.375 0
4.375 0.375 0
4.375 0.25 0
4.5 0.25 0
4.375 0.375 0
4.5 0.375 0
4.25 0.375 0
4.375 0.375 0
4.25 0.5 0
4.375 0.5 0
4.375 0.375 0
4.5 0.375 0
4.375 0.5 0
4.5 0.5 0
4.5 0 0
4.625 0 0
4.5 0.125 0
4.625 0.125 0
4.625 0 0
4.75 0 0
4.625 0.125 0
4.75 0.125 0
4.5 0.125 0
4.625 0.125 0
4.5 0.25 0
4.625 0.25 0
4.625 0.125 0
4.75 0.125 0
4.625 0.25 0
4.75 0.25 0
4.75 0 0
4.875 0 0
4.75 0.125 0
4.875 0.125 0
4.875 0 0
5 0 0
4.875 0.125 0
5 0.125 0
4.75 0.125 0
4.875 0.125 0
4.75 0.25 0
4.875 0.25 0
4.875 0.125 0
5 0.125 0
4.875 0.25 0
5 0.25 0
4.5 0.25 0
4.625 0.25 0
4.5 0.375 0
4.625 0.375 0
4.625 0.25 0
4.75 0.25 0
4.625 0.375 0
4.75 0.375 0
4.5 0.375 0
4.625 0.375 0
4.5 0.5 0
4.625 0.5 0
4.625 0.375 0
4.75 0.375 0
4.625 0.5 0
4.75 0.5 0
4.75 0.25 0
4.875 0.25 0
4.75 0.375 0
4.875 0.375 0
4.875 0.25 0
5 0.25 0
4.875 0.375 0
5 0.375 0
4.75 0.375 0
4.875 0.375 0
4.75 0.5 0
4.875 0.5 0
4.875 0.375 0
5 0.375 0
4.875 0.5 0
5 0.5 0
4 0.5 0
4.125 0.5 0
4 0.625 0
4.125 0.625 0
4.125 0.5 0
4.25 0.5 0
4.125 0.625 0
4.25 0.625 0
4 0.625 0
4.125 0.625 0
4 0.75 0
4.125 0.75 0
4.125 0.625 0
4.25 0.625 0
4.125 0.75 0
4.25 0.75 0
4.25 0.5 0
4.375 0.5 0
4.25 0.625 0
4.375 0.625 0
4.375 0.5 0
4.5 0.5 0
4.375 0.625 0
4.5 0.625 0
4.25 0.625 0
4.375 0.625 0
4.25 0.75 0
4.375 0.75 0
4.375 0.625 0
4.5 0.625 0
4.375 0.75 0
4.5 0.75 0
4 0.75 0
4.125 0.75 0
4 0.875 0
4.125 0.875 0
4.125 0.75 0
4.25 0.75 0
4.125 0.875 0
4.25 0.875 0
4 0.875 0
4.125 0.875 0
4 1 0
4.125 1 0
4.125 0.875 0
4.25 0.875 0
4.125 1 0
4.25 1 0
4.25 0.75 0
4.375 0.75 0
4.25 0.875 0
4.375 0.875 0
4.375 0.75 0
4.5 0.75 0
4.375 0.875 0
4.5 0.875 0
4.25 0.875 0
4.375 0.875 0
4.25 1 0
4.375 1 0
4.375 0.875 0
4.5 0.875 0
4.375 1 0
4.5 1 0
4.5 0.5 0
4.625 0.5 0
4.5 0.625 0
4.625 0.625 0
4.625 0.5 0
4.75 0.5 0
4.625 0.625 0
4.75 0.625 0
4.5 0.625 0
4.625 0.625 0
4.5 0.75 0
4.625 0.75 0
4.625 0.625 0
4.75 0.625 0
4.625 0.75 0
4.75 0.75 0
4.75 0.5 0
4.875 0.5 0
4.75 0.625 0
4.875 0.625 0
4.875 0.5 0
5 0.5 0
4.875 0.625 0
5 0.625 0
4.75 0.625 0
4.875 0.625 0
4.75 0.75 0
4.875 0.75 0
4.875 0.625 0
5 0.625 0
4.875 0.75 0
5 0.75 0
4.5 0.75 0
4.625 0.75 0
4.5 0.875 0
4.625 0.875 0
4.625 0.75 0
4.75 0.75 0
4.625 0.875 0
4.75 0.875 0
4.5 0.875 0
4.625 0.875 0
4.5 1 0
4.625 1 0
4.625 0.875 0
4.75 0.875 0
4.625 1 0
4.75 1 0
4.75 0.75 0
4.875 0.75 0
4.75 0.875 0
4.875 0.875 0
4.875 0.75 0
5 0.75 0
4.875 0.875 0
5 0.875 0
4.75 0.875 0
4.875 0.875 0
4.75 1 0
4.875 1 0
4.875 0.875 0
5 0.875 0
4.875 1 0
5 1 0
3 0 0
3.125 0 0
3 0.125 0
3.125 0.125 0
3.125 0 0
3.25 0 0
3.125 0.125 0
3.25 0.125 0
3 0.125 0
3.125 0.125 0
3 0.25 0
3.125 0.25 0
3.125 0.125 0
3.25 0.125 0
3.125 0.25 0
3.25 0.25 0
3.25 0 0
3.375 0 0
3.25 0.125 0
3.375 0.125 0
3.375 0 0
3.5 0 0
3.375 0.125 0
3.5 0.125 0
3.25 0.125 0
3.375 0.125 0
3.25 0.25 0
3.375 0.25 0
3.375 0.125 0
3.5 0.125 0
3.375 0.25 0
3.5 0.25 0
3 0.25 0
3.125 0.25 0
3 0.375 0
3.125 0.375 0
3.125 0.25 0
3.25 0.25 0
3.125 0.375 0
3.25 0.375 0
3 0.375 0
3.125 0.375 0
3 0.5 0
3.125 0.5 0
3.125 0.375 0
3.25 0.375 0
3.125 0.5 0
3.25 0.5 0
3.25 0.25 0
3.375 0.25 0
3.25 0.375 0
3.375 0.375 0
3.375 0.25 0
3.5 0.25 0
3.375 0.375 0
3.5 0.375 0
3.25 0.375 0
3.375 0.375 0
3.25 0.5 0
3.375 0.5 0
3.375 0.375 0
3.5 0.375 0
3.375 0.5 0
3.5 0.5 0
3.5 0 0
3.625 0 0
3.5 0.125 0
3.625 0.125 0
3.625 0 0
3.75 0 0
3.625 0.125 0
3.75 0.125 0
3.5 0.125 0
3.625 0.125 0
3.5 0.25 0
3.625 0.25 0
3.625 0.125 0
3.75 0.125 0
3.625 0.25 0
3.75 0.25 0
3.75 0 0
3.875 0 0
3.75 0.125 0
3.875 0.125 0
3.875 0 0
4 0 0
3.875 0.125 0
4 0.125 0
3.75 0.125 0
3.875 0.125 0
3.75 0.25 0
3.875 0.25 0
3.875 0.125 0
4 0.125 0
3.875 0.25 0
4 0.25 0
3.5 0.25 0
3.625 0.25 0
3.5 0.375 0
3.625 0.375 0
3.625 0.25 0
3.75 0.25 0
3.625 0.375 0
3.75 0.375 0
3.5 0.375 0
3.625 0.375 0
3.5 0.5 0
3.625 0.5 0
3.625 0.375 0
3.75 0.375 0
3.625 0.5 0
3.75 0.5 0
3.75 0.25 0
3.875 0.25 0
3.75 0.375 0
3.875 0.375 0
3.875 0.25 0
4 0.25 0
3.875 0.375 0
4 0.375 0
3.75 0.375 0
3.875 0.375 0
3.75 0.5 0
3.875 0.5 0
3.875 0.375 0
4 0.375 0
3.875 0.5 0
4 0.5 0
3 0.5 0
3.125 0.5 0
3 0.625 0
3.125 0.625 0
3.125 0.5 0
3.25 0.5 0
3.125 0.625 0
3.25 0.625 0
3 0.625 0
3.125 0.625 0
3 0.75 0
3.125 0.75 0
3.125 0.625 0
3.25 0.625 0
3.125 0.75 0
3.25 0.75 0
3.25 0.5 0
3.375 0.5 0
3.25 0.625 0
3.375 0.625 0
3.375 0.5 0
3.5 0.5 0
3.375 0.625 0
3.5 0.625 0
3.25 0.625 0
3.375 0.625 0
3.25 0.75 0
3.375 0.75 0
3.375 0.625 0
3.5 0.625 0
3.375 0.75 0
3.5 0.75 0
3 0.75 0
3.125 0.75 0
3 0.875 0
3.125 0.875 0
3.125 0.75 0
3.25 0.75 0
3.125 0.875 0
3.25 0.875 0
3 0.875 0
3.125 0.875 0
3 1 0
3.125 1 0
3.125 0.875 0
3.25 0.875 0
3.125 1 0
3.25 1 0
3.25 0.75 0
3.375 0.75 0
3.25 0.875 0
3.375 0.875 0
3.375 0.75 0
3.5 0.75 0
3.375 0.875 0
3.5 0.875 0
3.25 0.875 0
3.375 0.875 0
3.25 1 0
3.375 1 0
3.375 0.875 0
3.5 0.875 0
3.375 1 0
3.5 1 0
3.5 0.5 0
3.625 0.5 0
3.5 0.625 0
3.625 0.625 0
3.625 0.5 0
3.75 0.5 0
3.625 0.625 0
3.75 0.625 0
3.5 0.625 0
3.625 0.625 0
3.5 0.75 0
3.625 0.75 0
3.625 0.625 0
3.75 0.625 0
3.625 0.75 0
3.75 0.75 0
3.75 0.5 0
3.875 0.5 0
3.75 0.625 0
3.875 0.625 0
3.875 0.5 0
4 0.5 0
3.875 0.625 0
4 0.625 0
3.75 0.625 0
3.875 0.625 0
3.75 0.75 0
3.875 0.75 0
3.875 0.625 0
4 0.625 0
3.875 0.75 0
4 0.75 0
3.5 0.75 0
3.625 0.75 0
3.5 0.875 0
3.625 0.875 0
3.625 0.75 0
3.75 0.75 0
3.625 0.875 0
3.75 0.875 0
3.5 0.875 0
3.625 0.875 0
3.5 1 0
3.625 1 0
3.625 0.875 0
3.75 0.875 0
3.625 1 0
3.75 1 0
3.75 0.75 0
3.875 0.75 0
3.75 0.875 0
3.875 0.875 0
3.875 0.75 0
4 0.75 0
3.875 0.875 0
4 0.875 0
3.75 0.875 0
3.875 0.875 0
3.75 1 0
3.875 1 0
3.875 0.875 0
4 0.875 0
3.875 1 0
4 1 0
2 0 0
2.125 0 0
2 0.125 0
2.125 0.125 0
2.125 0 0
2.25 0 0
2.125 0.125 0
2.25 0.125 0
2 0.125 0
2.125 0.125 0
2 0.25 0
2.125 0.25 0
2.125 0.125 0
2.25 0.125 0
2.125 0.25 0
2.25 0.25 0
2.25 0 0
2.375 0 0
2.25 0.125 0
2.375 0.125 0
2.375 0 0
2.5 0 0
2.375 0.125 0
2.5 0.125 0
2.25 0.125 0
2.375 0.125 0
2.25 0.25 0
2.375 0.25 0
2.375 0.125 0
2.5 0.125 0
2.375 0.25 0
2.5 0.25 0
2 0.25 0
2.125 0.25 0
2 0.375 0
2.125 0.375 0
2.125 0.25 0
2.25 0.25 0
2.125 0.375 0
2.25 0.375 0
2 0.375 0
2.125 0.375 0
2 0.5 0
2.125 0.5 0
2.125 0.375 0
2.25 0.375 0
2.125 0.5 0
2.25 0.5 0
2.25 0.25 0
2.375 0.25 0
2.25 0.375 0
2.375 0.375 0
2.375 0.25 0
[...]
POINT_DATA 1536
VECTORS displacements double
37.4089 -43.5365 0
38.1163 -38.9689 0
33.0338 -43.7463 0
33.5624 -39.1683 0
38.1163 -38.9689 0
38.7932 -34.2259 0
33.5624 -39.1683 0
34.0636 -34.4153 0
33.0338 -43.7463 0
33.5624 -39.1683 0
29.0292 -43.8884 0
29.3813 -39.2999 0
33.5624 -39.1683 0
34.0636 -34.4153 0
29.3813 -39.2999 0
29.7091 -34.5344 0
38.7932 -34.2259 0
39.4441 -29.3128 0
34.0636 -34.4153 0
34.5373 -29.4921 0
39.4441 -29.3128 0
40.0794 -24.2275 0
34.5373 -29.4921 0
34.9807 -24.4002 0
34.0636 -34.4153 0
34.5373 -29.4921 0
29.7091 -34.5344 0
30.0072 -29.5973 0
34.5373 -29.4921 0
34.9807 -24.4002 0
30.0072 -29.5973 0
30.2699 -24.4842 0
29.0292 -43.8884 0
29.3813 -39.2999 0
25.2026 -43.9588 0
25.3733 -39.36 0
29.3813 -39.2999 0
29.7091 -34.5344 0
25.3733 -39.36 0
25.5245 -34.5814 0
25.2026 -43.9588 0
25.3733 -39.36 0
21.4543 -43.9584 0
21.4435 -39.3506 0
25.3733 -39.36 0
25.5245 -34.5814 0
21.4435 -39.3506 0
21.4193 -34.5615 0
29.7091 -34.5344 0
30.0072 -29.5973 0
25.5245 -34.5814 0
25.6508 -29.6268 0
30.0072 -29.5973 0
30.2699 -24.4842 0
25.6508 -29.6268 0
25.7382 -24.5 0
25.5245 -34.5814 0
25.6508 -29.6268 0
21.4193 -34.5615 0
21.3765 -29.5971 0
25.6508 -29.6268 0
25.7382 -24.5 0
21.3765 -29.5971 0
21.3106 -24.4601 0
40.0794 -24.2275 0
40.7156 -18.962 0
34.9807 -24.4002 0
35.3895 -19.1189 0
40.7156 -18.962 0
41.4022 -13.4369 0
35.3895 -19.1189 0
35.727 -13.6218 0
34.9807 -24.4002 0
35.3895 -19.1189 0
30.2699 -24.4842 0
30.4732 -19.1863 0
35.3895 -19.1189 0
35.727 -13.6218 0
30.4732 -19.1863 0
30.6027 -13.6188 0
41.4022 -13.4369 0
42.1972 -7.63464 0
35.727 -13.6218 0
35.8547 -7.56279 0
42.1972 -7.63464 0
42.6328 0 0
35.8547 -7.56279 0
36.0311 -1.37919 0
35.727 -13.6218 0
35.8547 -7.56279 0
30.6027 -13.6188 0
30.5922 -7.80728 0
35.8547 -7.56279 0
36.0311 -1.37919 0
30.5922 -7.80728 0
30.7399 -2.344 0
30.2699 -24.4842 0
30.4732 -19.1863 0
25.7382 -24.5 0
25.7842 -19.1789 0
30.4732 -19.1863 0
30.6027 -13.6188 0
25.7842 -19.1789 0
25.7312 -13.6907 0
25.7382 -24.5 0
25.7842 -19.1789 0
21.3106 -24.4601 0
21.196 -19.1895 0
25.7842 -19.1789 0
25.7312 -13.6907 0
21.196 -19.1895 0
21.097 -13.8487 0
30.6027 -13.6188 0
30.5922 -7.80728 0
25.7312 -13.6907 0
25.7365 -8.20838 0
30.5922 -7.80728 0
30.7399 -2.344 0
25.7365 -8.20838 0
25.8544 -3.00851 0
25.7312 -13.6907 0
25.7365 -8.20838 0
21.097 -13.8487 0
21.0778 -8.55695 0
25.7365 -8.20838 0
25.8544 -3.00851 0
21.0778 -8.55695 0
21.1628 -3.54214 0
21.4543 -43.9584 0
21.4435 -39.3506 0
17.7037 -43.8908 0
17.5111 -39.2787 0
21.4435 -39.3506 0
21.4193 -34.5615 0
17.5111 -39.2787 0
17.3154 -34.4846 0
17.7037 -43.8908 0
17.5111 -39.2787 0
13.8674 -43.7635 0
13.4958 -39.1553 0
17.5111 -39.2787 0
17.3154 -34.4846 0
13.4958 -39.1553 0
13.1329 -34.377 0
21.4193 -34.5615 0
21.3765 -29.5971 0
17.3154 -34.4846 0
17.111 -29.5247 0
21.3765 -29.5971 0
21.3106 -24.4601 0
17.111 -29.5247 0
16.8958 -24.4259 0
17.3154 -34.4846 0
17.111 -29.5247 0
13.1329 -34.377 0
12.7814 -29.4431 0
17.111 -29.5247 0
16.8958 -24.4259 0
12.7814 -29.4431 0
12.4663 -24.3854 0
13.8674 -43.7635 0
13.4958 -39.1553 0
9.84671 -43.5949 0
9.3077 -38.9978 0
13.4958 -39.1553 0
13.1329 -34.377 0
9.3077 -38.9978 0
8.80029 -34.2412 0
9.84671 -43.5949 0
9.3077 -38.9978 0
5.50145 -43.3856 0
4.83994 -38.8038 0
9.3077 -38.9978 0
8.80029 -34.2412 0
4.83994 -38.8038 0
4.24837 -34.0755 0
13.1329 -34.377 0
12.7814 -29.4431 0
8.80029 -34.2412 0
8.35242 -29.3385 0
12.7814 -29.4431 0
12.4663 -24.3854 0
8.35242 -29.3385 0
7.98853 -24.3332 0
8.80029 -34.2412 0
8.35242 -29.3385 0
4.24837 -34.0755 0
3.72105 -29.2139 0
8.35242 -29.3385 0
7.98853 -24.3332 0
3.72105 -29.2139 0
3.2493 -24.2287 0
21.3106 -24.4601 0
21.196 -19.1895 0
16.8958 -24.4259 0
16.6981 -19.2255 0
21.196 -19.1895 0
21.097 -13.8487 0
16.6981 -19.2255 0
16.5695 -13.9973 0
16.8958 -24.4259 0
16.6981 -19.2255 0
12.4663 -24.3854 0
12.229 -19.2539 0
16.6981 -19.2255 0
16.5695 -13.9973 0
12.229 -19.2539 0
12.0696 -14.102 0
21.097 -13.8487 0
21.0778 -8.55695 0
16.5695 -13.9973 0
16.5286 -8.83262 0
21.0778 -8.55695 0
21.1628 -3.54214 0
16.5286 -8.83262 0
16.5918 -3.95686 0
16.5695 -13.9973 0
16.5286 -8.83262 0
12.0696 -14.102 0
12.0073 -9.02611 0
16.5286 -8.83262 0
16.5918 -3.95686 0
12.0073 -9.02611 0
12.0311 -4.20646 0
12.4663 -24.3854 0
12.229 -19.2539 0
7.98853 -24.3332 0
7.69219 -19.2431 0
12.229 -19.2539 0
12.0696 -14.102 0
7.69219 -19.2431 0
7.48468 -14.1335 0
7.98853 -24.3332 0
7.69219 -19.2431 0
3.2493 -24.2287 0
2.87773 -19.1676 0
7.69219 -19.2431 0
7.48468 -14.1335 0
2.87773 -19.1676 0
2.65166 -14.1032 0
12.0696 -14.102 0
12.0073 -9.02611 0
7.48468 -14.1335 0
7.3853 -9.1181 0
12.0073 -9.02611 0
12.0311 -4.20646 0
7.3853 -9.1181 0
7.3684 -4.28687 0
7.48468 -14.1335 0
7.3853 -9.1181 0
2.65166 -14.1032 0
2.57712 -9.13317 0
7.3853 -9.1181 0
7.3684 -4.28687 0
2.57712 -9.13317 0
2.57247 -4.29188 0
30.5104 -72.7651 0
31.4991 -69.9171 0
27.884 -73.0558 0
28.6119 -70.1976 0
31.4991 -69.9171 0
32.45 -66.8148 0
28.6119 -70.1976 0
29.3169 -67.0852 0
27.884 -73.0558 0
28.6119 -70.1976 0
25.5999 -73.2543 0
26.07 -70.3895 0
28.6119 -70.1976 0
29.3169 -67.0852 0
26.07 -70.3895 0
26.5318 -67.2709 0
32.45 -66.8148 0
33.3643 -63.4721 0
29.3169 -67.0852 0
29.9984 -63.7325 0
33.3643 -63.4721 0
34.2426 -59.9012 0
29.9984 -63.7325 0
30.6558 -60.1517 0
29.3169 -67.0852 0
29.9984 -63.7325 0
26.5318 -67.2709 0
26.9841 -63.9118 0
29.9984 -63.7325 0
30.6558 -60.1517 0
26.9841 -63.9118 0
27.4247 -60.3244 0
25.5999 -73.2543 0
26.07 -70.3895 0
23.539 -73.3591 0
23.747 -70.4906 0
26.07 -70.3895 0
26.5318 -67.2709 0
23.747 -70.4906 0
23.9599 -67.3697 0
23.539 -73.3591 0
23.747 -70.4906 0
21.5546 -73.3725 0
21.5071 -70.5025 0
23.747 -70.4906 0
23.9599 -67.3697 0
21.5071 -70.5025 0
21.4744 -67.3829 0
26.5318 -67.2709 0
26.9841 -63.9118 0
23.9599 -67.3697 0
24.1763 -64.0083 0
26.9841 -63.9118 0
27.4247 -60.3244 0
24.1763 -64.0083 0
24.3936 -60.4177 0
23.9599 -67.3697 0
24.1763 -64.0083 0
21.4744 -67.3829 0
21.4557 -64.0231 0
24.1763 -64.0083 0
24.3936 -60.4177 0
21.4557 -64.0231 0
21.4486 -60.4331 0
34.2426 -59.9012 0
35.0858 -56.1129 0
30.6558 -60.1517 0
31.2887 -56.3534 0
35.0858 -56.1129 0
35.8944 -52.1168 0
31.2887 -56.3534 0
31.8963 -52.3472 0
30.6558 -60.1517 0
31.2887 -56.3534 0
27.4247 -60.3244 0
27.8515 -56.5193 0
31.2887 -56.3534 0
31.8963 -52.3472 0
27.8515 -56.5193 0
28.2624 -52.506 0
35.8944 -52.1168 0
36.6686 -47.9219 0
31.8963 -52.3472 0
32.4782 -48.142 0
36.6686 -47.9219 0
37.4089 -43.5365 0
32.4782 -48.142 0
33.0338 -43.7463 0
31.8963 -52.3472 0
32.4782 -48.142 0
28.2624 -52.506 0
28.6556 -48.2931 0
32.4782 -48.142 0
33.0338 -43.7463 0
28.6556 -48.2931 0
29.0292 -43.8884 0
27.4247 -60.3244 0
27.8515 -56.5193 0
24.3936 -60.4177 0
24.6085 -56.6085 0
27.8515 -56.5193 0
28.2624 -52.506 0
24.6085 -56.6085 0
24.817 -52.5904 0
24.3936 -60.4177 0
24.6085 -56.6085 0
21.4486 -60.4331 0
21.4494 -56.6226 0
24.6085 -56.6085 0
24.817 -52.5904 0
21.4494 -56.6226 0
21.4537 -52.601 0
28.2624 -52.506 0
28.6556 -48.2931 0
24.817 -52.5904 0
25.016 -48.3714 0
28.6556 -48.2931 0
29.0292 -43.8884 0
25.016 -48.3714 0
25.2026 -43.9588 0
24.817 -52.5904 0
25.016 -48.3714 0
21.4537 -52.601 0
21.4566 -48.3772 0
25.016 -48.3714 0
25.2026 -43.9588 0
21.4566 -48.3772 0
21.4543 -43.9584 0
21.5546 -73.3725 0
21.5071 -70.5025 0
19.5421 -73.2998 0
19.2506 -70.4304 0
21.5071 -70.5025 0
21.4744 -67.3829 0
19.2506 -70.4304 0
18.9808 -67.3152 0
19.5421 -73.2998 0
19.2506 -70.4304 0
17.4066 -73.1477 0
16.8852 -70.2819 0
19.2506 -70.4304 0
18.9808 -67.3152 0
16.8852 -70.2819 0
16.3893 -67.1739 0
21.4744 -67.3829 0
21.4557 -64.0231 0
18.9808 -67.3152 0
18.7324 -63.9607 0
21.4557 -64.0231 0
21.4486 -60.4331 0
18.7324 -63.9607 0
18.5031 -60.3748 0
18.9808 -67.3152 0
18.7324 -63.9607 0
16.3893 -67.1739 0
15.9184 -63.8275 0
18.7324 -63.9607 0
18.5031 -60.3748 0
15.9184 -63.8275 0
15.4709 -60.2483 0
17.4066 -73.1477 0
16.8852 -70.2819 0
15.0269 -72.9269 0
14.2923 -70.0678 0
16.8852 -70.2819 0
16.3893 -67.1739 0
14.2923 -70.0678 0
13.5824 -66.9683 0
15.0269 -72.9269 0
14.2923 -70.0678 0
12.3607 -72.6383 0
11.3921 -69.7874 0
14.2923 -70.0678 0
13.5824 -66.9683 0
11.3921 -69.7874 0
10.4494 -66.6967 0
16.3893 -67.1739 0
15.9184 -63.8275 0
13.5824 -66.9683 0
12.8975 -63.6309 0
15.9184 -63.8275 0
15.4709 -60.2483 0
12.8975 -63.6309 0
12.2379 -60.0597 0
13.5824 -66.9683 0
12.8975 -63.6309 0
10.4494 -66.6967 0
9.53536 -63.3684 0
12.8975 -63.6309 0
12.2379 -60.0597 0
9.53536 -63.3684 0
8.65251 -59.807 0
21.4486 -60.4331 0
21.4494 -56.6226 0
18.5031 -60.3748 0
18.2898 -56.5657 0
21.4494 -56.6226 0
21.4537 -52.601 0
18.2898 -56.5657 0
18.0886 -52.5424 0
18.5031 -60.3748 0
18.2898 -56.5657 0
15.4709 -60.2483 0
15.0447 -56.4433 0
18.2898 -56.5657 0
18.0886 -52.5424 0
15.0447 -56.4433 0
14.6377 -52.4206 0
21.4537 -52.601 0
21.4566 -48.3772 0
18.0886 -52.5424 0
17.8949 -48.3144 0
21.4566 -48.3772 0
21.4543 -43.9584 0
17.8949 -48.3144 0
17.7037 -43.8908 0
18.0886 -52.5424 0
17.8949 -48.3144 0
14.6377 -52.4206 0
14.2467 -48.19 0
17.8949 -48.3144 0
17.7037 -43.8908 0
14.2467 -48.19 0
13.8674 -43.7635 0
15.4709 -60.2483 0
15.0447 -56.4433 0
12.2379 -60.0597 0
11.6036 -56.2612 0
15.0447 -56.4433 0
14.6377 -52.4206 0
11.6036 -56.2612 0
10.9943 -52.2431 0
12.2379 -60.0597 0
11.6036 -56.2612 0
8.65251 -59.807 0
7.80354 -56.0183 0
11.6036 -56.2612 0
10.9943 -52.2431 0
7.80354 -56.0183 0
6.99181 -52.0106 0
14.6377 -52.4206 0
14.2467 -48.19 0
10.9943 -52.2431 0
10.409 -48.0162 0
14.2467 -48.19 0
13.8674 -43.7635 0
10.409 -48.0162 0
9.84671 -43.5949 0
10.9943 -52.2431 0
10.409 -48.0162 0
6.99181 -52.0106 0
6.22208 -47.7946 0
10.409 -48.0162 0
9.84671 -43.5949 0
6.22208 -47.7946 0
5.50145 -43.3856 0
21.3164 -84.386 0
22.5597 -84.1861 0
21.3164 -84.7433 0
22.1861 -84.5416 0
22.5597 -84.1861 0
23.7898 -83.5927 0
22.1861 -84.5416 0
23.051 -83.9428 0
21.3164 -84.7433 0
22.1861 -84.5416 0
21.3164 -85.0587 0
21.924 -84.8484 0
22.1861 -84.5416 0
23.051 -83.9428 0
21.924 -84.8484 0
22.5134 -84.2287 0
23.7898 -83.5927 0
24.9962 -82.6213 0
23.051 -83.9428 0
23.9059 -82.9634 0
24.9962 -82.6213 0
26.172 -81.2918 0
23.9059 -82.9634 0
24.7448 -81.6243 0
23.051 -83.9428 0
23.9059 -82.9634 0
22.5134 -84.2287 0
23.0765 -83.2263 0
23.9059 -82.9634 0
24.7448 -81.6243 0
23.0765 -83.2263 0
23.6149 -81.868 0
21.3164 -85.0587 0
21.924 -84.8484 0
21.3164 -85.4585 0
21.7345 -85.2265 0
21.924 -84.8484 0
22.5134 -84.2287 0
21.7345 -85.2265 0
22.1118 -84.5519 0
21.3164 -85.4585 0
21.7345 -85.2265 0
21.3164 -85.8795 0
21.5393 -85.6188 0
21.7345 -85.2265 0
22.1118 -84.5519 0
21.5393 -85.6188 0
21.7043 -84.8717 0
22.5134 -84.2287 0
23.0765 -83.2263 0
22.1118 -84.5519 0
22.4305 -83.4833 0
23.0765 -83.2263 0
23.6149 -81.868 0
22.4305 -83.4833 0
22.6968 -82.0663 0
22.1118 -84.5519 0
22.4305 -83.4833 0
21.7043 -84.8717 0
21.7879 -83.7144 0
22.4305 -83.4833 0
22.6968 -82.0663 0
21.7879 -83.7144 0
21.7979 -82.2159 0
26.172 -81.2918 0
27.3131 -79.6237 0
24.7448 -81.6243 0
25.5635 -79.946 0
27.3131 -79.6237 0
28.4173 -77.6352 0
25.5635 -79.946 0
26.3599 -77.9468 0
24.7448 -81.6243 0
25.5635 -79.946 0
23.6149 -81.868 0
24.133 -80.1746 0
25.5635 -79.946 0
26.3599 -77.9468 0
24.133 -80.1746 0
24.6341 -78.1635 0
28.4173 -77.6352 0
29.4832 -75.3433 0
26.3599 -77.9468 0
27.1334 -75.6444 0
29.4832 -75.3433 0
30.5104 -72.7651 0
27.1334 -75.6444 0
27.884 -73.0558 0
26.3599 -77.9468 0
27.1334 -75.6444 0
24.6341 -78.1635 0
25.1218 -75.8509 0
27.1334 -75.6444 0
27.884 -73.0558 0
25.1218 -75.8509 0
25.5999 -73.2543 0
23.6149 -81.868 0
24.133 -80.1746 0
22.6968 -82.0663 0
22.9258 -80.3306 0
24.133 -80.1746 0
24.6341 -78.1635 0
22.9258 -80.3306 0
23.1336 -78.2913 0
22.6968 -82.0663 0
22.9258 -80.3306 0
21.7979 -82.2159 0
21.754 -80.4131 0
22.9258 -80.3306 0
23.1336 -78.2913 0
21.754 -80.4131 0
21.6861 -78.3332 0
24.6341 -78.1635 0
25.1218 -75.8509 0
23.1336 -78.2913 0
23.3354 -75.9634 0
25.1218 -75.8509 0
25.5999 -73.2543 0
23.3354 -75.9634 0
23.539 -73.3591 0
23.1336 -78.2913 0
23.3354 -75.9634 0
21.6861 -78.3332 0
21.6159 -75.9847 0
23.3354 -75.9634 0
23.539 -73.3591 0
21.6159 -75.9847 0
21.5546 -73.3725 0
21.3164 -85.8795 0
21.5393 -85.6188 0
21.3164 -86.3013 0
21.3237 -85.994 0
21.5393 -85.6188 0
21.7043 -84.8717 0
21.3237 -85.994 0
21.2512 -85.1416 0
21.3164 -86.3013 0
21.3237 -85.994 0
21.3164 -86.705 0
21.0494 -86.3186 0
21.3237 -85.994 0
21.2512 -85.1416 0
21.0494 -86.3186 0
20.6992 -85.3084 0
21.7043 -84.8717 0
21.7879 -83.7144 0
21.2512 -85.1416 0
21.0778 -83.8732 0
21.7879 -83.7144 0
21.7979 -82.2159 0
21.0778 -83.8732 0
20.8163 -82.2745 0
21.2512 -85.1416 0
21.0778 -83.8732 0
20.6992 -85.3084 0
20.2186 -83.8904 0
21.0778 -83.8732 0
20.8163 -82.2745 0
20.2186 -83.8904 0
19.6639 -82.21 0
21.3164 -86.705 0
21.0494 -86.3186 0
21.3164 -87.057 0
20.6953 -86.49 0
21.0494 -86.3186 0
20.6992 -85.3084 0
20.6953 -86.49 0
19.9089 -85.2303 0
21.3164 -87.057 0
20.6953 -86.49 0
21.3164 -87.0697 0
19.8965 -86.3419 0
20.6953 -86.49 0
19.9089 -85.2303 0
19.8965 -86.3419 0
18.652 -84.9038 0
20.6992 -85.3084 0
20.2186 -83.8904 0
19.9089 -85.2303 0
19.0457 -83.7152 0
20.2186 -83.8904 0
19.6639 -82.21 0
19.0457 -83.7152 0
18.1987 -82.0045 0
19.9089 -85.2303 0
19.0457 -83.7152 0
18.652 -84.9038 0
17.5305 -83.3987 0
19.0457 -83.7152 0
18.1987 -82.0045 0
17.5305 -83.3987 0
16.4522 -81.6898 0
21.7979 -82.2159 0
21.754 -80.4131 0
20.8163 -82.2745 0
20.5055 -80.4066 0
21.754 -80.4131 0
21.6861 -78.3332 0
20.5055 -80.4066 0
20.1781 -78.2874 0
20.8163 -82.2745 0
20.5055 -80.4066 0
19.6639 -82.21 0
19.0894 -80.2966 0
20.5055 -80.4066 0
20.1781 -78.2874 0
19.0894 -80.2966 0
18.5148 -78.1514 0
21.6861 -78.3332 0
21.6159 -75.9847 0
20.1781 -78.2874 0
19.8532 -75.919 0
21.6159 -75.9847 0
21.5546 -73.3725 0
19.8532 -75.919 0
19.5421 -73.2998 0
20.1781 -78.2874 0
19.8532 -75.919 0
18.5148 -78.1514 0
17.9514 -75.77 0
19.8532 -75.919 0
19.5421 -73.2998 0
17.9514 -75.77 0
17.4066 -73.1477 0
19.6639 -82.21 0
19.0894 -80.2966 0
18.1987 -82.0045 0
17.3724 -80.0781 0
19.0894 -80.2966 0
18.5148 -78.1514 0
17.3724 -80.0781 0
16.5677 -77.9278 0
18.1987 -82.0045 0
17.3724 -80.0781 0
16.4522 -81.6898 0
15.3988 -79.7692 0
17.3724 -80.0781 0
16.5677 -77.9278 0
15.3988 -79.7692 0
14.3659 -77.625 0
18.5148 -78.1514 0
17.9514 -75.77 0
16.5677 -77.9278 0
15.7856 -75.5459 0
17.9514 -75.77 0
17.4066 -73.1477 0
15.7856 -75.5459 0
15.0269 -72.9269 0
16.5677 -77.9278 0
15.7856 -75.5459 0
14.3659 -77.625 0
13.3528 -75.2498 0
15.7856 -75.5459 0
15.0269 -72.9269 0
13.3528 -75.2498 0
12.3607 -72.6383 0
12.1224 -72.7651 0
13.1496 -75.3433 0
14.7487 -73.0558 0
15.4994 -75.6444 0
13.1496 -75.3433 0
14.2155 -77.6352 0
15.4994 -75.6444 0
16.2728 -77.9468 0
14.7487 -73.0558 0
15.4994 -75.6444 0
17.0328 -73.2543 0
17.511 -75.8509 0
15.4994 -75.6444 0
16.2728 -77.9468 0
17.511 -75.8509 0
17.9987 -78.1635 0
14.2155 -77.6352 0
15.3196 -79.6237 0
16.2728 -77.9468 0
17.0693 -79.946 0
15.3196 -79.6237 0
16.4608 -81.2918 0
17.0693 -79.946 0
17.888 -81.6243 0
16.2728 -77.9468 0
17.0693 -79.946 0
17.9987 -78.1635 0
18.4998 -80.1746 0
17.0693 -79.946 0
17.888 -81.6243 0
18.4998 -80.1746 0
19.0179 -81.868 0
17.0328 -73.2543 0
17.511 -75.8509 0
19.0938 -73.3591 0
19.2973 -75.9634 0
17.511 -75.8509 0
17.9987 -78.1635 0
19.2973 -75.9634 0
19.4992 -78.2913 0
19.0938 -73.3591 0
19.2973 -75.9634 0
21.0781 -73.3725 0
21.0168 -75.9847 0
19.2973 -75.9634 0
19.4992 -78.2913 0
21.0168 -75.9847 0
20.9467 -78.3332 0
17.9987 -78.1635 0
18.4998 -80.1746 0
19.4992 -78.2913 0
19.7069 -80.3306 0
18.4998 -80.1746 0
19.0179 -81.868 0
19.7069 -80.3306 0
19.936 -82.0663 0
19.4992 -78.2913 0
19.7069 -80.3306 0
20.9467 -78.3332 0
20.8788 -80.4131 0
19.7069 -80.3306 0
19.936 -82.0663 0
20.8788 -80.4131 0
20.8349 -82.2159 0
16.4608 -81.2918 0
17.6365 -82.6213 0
17.888 -81.6243 0
18.7269 -82.9634 0
17.6365 -82.6213 0
18.8429 -83.5927 0
18.7269 -82.9634 0
19.5817 -83.9428 0
17.888 -81.6243 0
18.7269 -82.9634 0
19.0179 -81.868 0
19.5562 -83.2263 0
18.7269 -82.9634 0
19.5817 -83.9428 0
19.5562 -83.2263 0
20.1194 -84.2287 0
18.8429 -83.5927 0
20.0731 -84.1861 0
19.5817 -83.9428 0
20.4467 -84.5416 0
20.0731 -84.1861 0
21.3164 -84.386 0
20.4467 -84.5416 0
21.3164 -84.7433 0
19.5817 -83.9428 0
20.4467 -84.5416 0
20.1194 -84.2287 0
20.7088 -84.8484 0
20.4467 -84.5416 0
21.3164 -84.7433 0
20.7088 -84.8484 0
21.3164 -85.0587 0
19.0179 -81.868 0
19.5562 -83.2263 0
19.936 -82.0663 0
20.2023 -83.4833 0
19.5562 -83.2263 0
20.1194 -84.2287 0
20.2023 -83.4833 0
20.521 -84.5519 0
19.936 -82.0663 0
20.2023 -83.4833 0
20.8349 -82.2159 0
20.8448 -83.7144 0
20.2023 -83.4833 0
20.521 -84.5519 0
20.8448 -83.7144 0
20.9285 -84.8717 0
20.1194 -84.2287 0
20.7088 -84.8484 0
20.521 -84.5519 0
20.8983 -85.2265 0
20.7088 -84.8484 0
21.3164 -85.0587 0
20.8983 -85.2265 0
21.3164 -85.4585 0
20.521 -84.5519 0
20.8983 -85.2265 0
20.9285 -84.8717 0
21.0934 -85.6188 0
20.8983 -85.2265 0
21.3164 -85.4585 0
21.0934 -85.6188 0
21.3164 -85.8795 0
21.0781 -73.3725 0
21.0168 -75.9847 0
23.0907 -73.2998 0
22.7796 -75.919 0
21.0168 -75.9847 0
20.9467 -78.3332 0
22.7796 -75.919 0
22.4547 -78.2874 0
23.0907 -73.2998 0
22.7796 -75.919 0
25.2262 -73.1477 0
24.6814 -75.77 0
22.7796 -75.919 0
22.4547 -78.2874 0
24.6814 -75.77 0
24.118 -78.1514 0
20.9467 -78.3332 0
20.8788 -80.4131 0
22.4547 -78.2874 0
22.1273 -80.4066 0
20.8788 -80.4131 0
20.8349 -82.2159 0
22.1273 -80.4066 0
21.8164 -82.2745 0
22.4547 -78.2874 0
22.1273 -80.4066 0
24.118 -78.1514 0
23.5434 -80.2966 0
22.1273 -80.4066 0
21.8164 -82.2745 0
23.5434 -80.2966 0
22.9688 -82.21 0
25.2262 -73.1477 0
24.6814 -75.77 0
27.6059 -72.9269 0
26.8471 -75.5459 0
24.6814 -75.77 0
24.118 -78.1514 0
26.8471 -75.5459 0
26.065 -77.9278 0
27.6059 -72.9269 0
26.8471 -75.5459 0
30.272 -72.6383 0
29.28 -75.2498 0
26.8471 -75.5459 0
26.065 -77.9278 0
29.28 -75.2498 0
28.2669 -77.625 0
24.118 -78.1514 0
23.5434 -80.2966 0
26.065 -77.9278 0
25.2604 -80.0781 0
23.5434 -80.2966 0
22.9688 -82.21 0
25.2604 -80.0781 0
24.4341 -82.0045 0
26.065 -77.9278 0
25.2604 -80.0781 0
28.2669 -77.625 0
27.234 -79.7692 0
25.2604 -80.0781 0
24.4341 -82.0045 0
27.234 -79.7692 0
26.1806 -81.6898 0
20.8349 -82.2159 0
20.8448 -83.7144 0
21.8164 -82.2745 0
21.5549 -83.8732 0
20.8448 -83.7144 0
20.9285 -84.8717 0
21.5549 -83.8732 0
21.3816 -85.1416 0
21.8164 -82.2745 0
21.5549 -83.8732 0
22.9688 -82.21 0
22.4142 -83.8904 0
21.5549 -83.8732 0
21.3816 -85.1416 0
22.4142 -83.8904 0
21.9335 -85.3084 0
20.9285 -84.8717 0
21.0934 -85.6188 0
21.3816 -85.1416 0
21.3091 -85.994 0
21.0934 -85.6188 0
21.3164 -85.8795 0
21.3091 -85.994 0
21.3164 -86.3013 0
21.3816 -85.1416 0
21.3091 -85.994 0
21.9335 -85.3084 0
21.5834 -86.3186 0
21.3091 -85.994 0
21.3164 -86.3013 0
21.5834 -86.3186 0
21.3164 -86.705 0
22.9688 -82.21 0
22.4142 -83.8904 0
24.4341 -82.0045 0
23.587 -83.7152 0
22.4142 -83.8904 0
21.9335 -85.3084 0
23.587 -83.7152 0
22.7239 -85.2303 0
24.4341 -82.0045 0
23.587 -83.7152 0
26.1806 -81.6898 0
25.1022 -83.3987 0
23.587 -83.7152 0
22.7239 -85.2303 0
25.1022 -83.3987 0
23.9808 -84.9038 0
21.9335 -85.3084 0
21.5834 -86.3186 0
22.7239 -85.2303 0
21.9375 -86.49 0
21.5834 -86.3186 0
21.3164 -86.705 0
21.9375 -86.49 0
21.3164 -87.057 0
22.7239 -85.2303 0
21.9375 -86.49 0
23.9808 -84.9038 0
22.7363 -86.3419 0
21.9375 -86.49 0
21.3164 -87.057 0
22.7363 -86.3419 0
21.3164 -87.0697 0
5.22389 -43.5365 0
5.96417 -47.9219 0
9.59898 -43.7463 0
10.1545 -48.142 0
5.96417 -47.9219 0
6.73837 -52.1168 0
10.1545 -48.142 0
10.7364 -52.3472 0
9.59898 -43.7463 0
10.1545 -48.142 0
13.6035 -43.8884 0
13.9771 -48.2931 0
10.1545 -48.142 0
10.7364 -52.3472 0
13.9771 -48.2931 0
14.3703 -52.506 0
6.73837 -52.1168 0
7.54691 -56.1129 0
10.7364 -52.3472 0
11.3441 -56.3534 0
7.54691 -56.1129 0
8.39014 -59.9012 0
11.3441 -56.3534 0
11.9769 -60.1517 0
10.7364 -52.3472 0
11.3441 -56.3534 0
14.3703 -52.506 0
14.7812 -56.5193 0
11.3441 -56.3534 0
11.9769 -60.1517 0
14.7812 -56.5193 0
15.208 -60.3244 0
13.6035 -43.8884 0
13.9771 -48.2931 0
17.4302 -43.9588 0
17.6167 -48.3714 0
13.9771 -48.2931 0
14.3703 -52.506 0
17.6167 -48.3714 0
17.8157 -52.5904 0
17.4302 -43.9588 0