# vtk DataFile Version 3.0
#This file was generated by the deal.II library on 2020/9/2 at 8:40:51
ASCII
DATASET UNSTRUCTURED_GRID

POINTS 1536 double
5 0 0
5.125 0 0
5 0.125 0
5.125 0.125 0
5.125 0 0
5.25 0 0
5.125 0.125 0
5.25 0.125 0
5 0.125 0
5.125 0.125 0
5 0.25 0
5.125 0.25 0
5.125 0.125 0
5.25 0.125 0
5.125 0.25 0
5.25 0.25 0
5.25 0 0
5.375 0 0
5.25 0.125 0
5.375 0.125 0
5.375 0 0
5.5 0 0
5.375 0.125 0
5.5 0.125 0
5.25 0.125 0
5.375 0.125 0
5.25 0.25 0
5.375 0.25 0
5.375 0.125 0
5.5 0.125 0
5.375 0.25 0
5.5 0.25 0
5 0.25 0
5.125 0.25 0
5 0.375 0
5.125 0.375 0
5.125 0.25 0
5.25 0.25 0
5.125 0.375 0
5.25 0.375 0
5 0.375 0
5.125 0.375 0
5 0.5 0
5.125 0.5 0
5.125 0.375 0
5.25 0.375 0
5.125 0.5 0
5.25 0.5 0
5.25 0.25 0
5.375 0.25 0
5.25 0.375 0
5.375 0.375 0
5.375 0.25 0
5.5 0.25 0
5.375 0.375 0
5.5 0.375 0
5.25 0.375 0
5.375 0.375 0
5.25 0.5 0
5.375 0.5 0
5.375 0.375 0
5.5 0.375 0
5.375 0.5 0
5.5 0.5 0
5.5 0 0
5.625 0 0
5.5 0.125 0
5.625 0.125 0
5.625 0 0
5.75 0 0
5.625 0.125 0
5.75 0.125 0
5.5 0.125 0
5.625 0.125 0
5.5 0.25 0
5.625 0.25 0
5.625 0.125 0
5.75 0.125 0
5.625 0.25 0
5.75 0.25 0
5.75 0 0
5.875 0 0
5.75 0.125 0
5.875 0.125 0
5.875 0 0
6 0 0
5.875 0.125 0
6 0.125 0
5.75 0.125 0
5.875 0.125 0
5.75 0.25 0
5.875 0.25 0
5.875 0.125 0
6 0.125 0
5.875 0.25 0
6 0.25 0
5.5 0.25 0
5.625 0.25 0
5.5 0.375 0
5.625 0.375 0
5.625 0.25 0
5.75 0.25 0
5.625 0.375 0
5.75 0.375 0
5.5 0.375 0
5.625 0.375 0
5.5 0.5 0
5.625 0.5 0
5.625 0.375 0
5.75 0.375 0
5.625 0.5 0
5.75 0.5 0
5.75 0.25 0
5.875 0.25 0
5.75 0.375 0
5.875 0.375 0
5.875 0.25 0
6 0.25 0
5.875 0.375 0
6 0.375 0
5.75 0.375 0
5.875 0.375 0
5.75 0.5 0
5.875 0.5 0
5.875 0.375 0
6 0.375 0
5.875 0.5 0
6 0.5 0
5 0.5 0
5.125 0.5 0
5 0.625 0
5.125 0.625 0
5.125 0.5 0
5.25 0.5 0
5.125 0.625 0
5.25 0.625 0
5 0.625 0
5.125 0.625 0
5 0.75 0
5.125 0.75 0
5.125 0.625 0
5.25 0.625 0
5.125 0.75 0
5.25 0.75 0
5.25 0.5 0
5.375 0.5 0
5.25 0.625 0
5.375 0.625 0
5.375 0.5 0
5.5 0.5 0
5.375 0.625 0
5.5 0.625 0
5.25 0.625 0
5.375 0.625 0
5.25 0.75 0
5.375 0.75 0
5.375 0.625 0
5.5 0.625 0
5.375 0.75 0
5.5 0.75 0
5 0.75 0
5.125 0.75 0
5 0.875 0
5.125 0.875 0
5.125 0.75 0
5.25 0.75 0
5.125 0.875 0
5.25 0.875 0
5 0.875 0
5.125 0.875 0
5 1 0
5.125 1 0
5.125 0.875 0
5.25 0.875 0
5.125 1 0
5.25 1 0
5.25 0.75 0
5.375 0.75 0
5.25 0.875 0
5.375 0.875 0
5.375 0.75 0
5.5 0.75 0
5.375 0.875 0
5.5 0.875 0
5.25 0.875 0
5.375 0.875 0
5.25 1 0
5.375 1 0
5.375 0.875 0
5.5 0.875 0
5.375 1 0
5.5 1 0
5.5 0.5 0
5.625 0.5 0
5.5 0.625 0
5.625 0.625 0
5.625 0.5 0
5.75 0.5 0
5.625 0.625 0
5.75 0.625 0
5.5 0.625 0
5.625 0.625 0
5.5 0.75 0
5.625 0.75 0
5.625 0.625 0
5.75 0.625 0
5.625 0.75 0
5.75 0.75 0
5.75 0.5 0
5.875 0.5 0
5.75 0.625 0
5.875 0.625 0
5.875 0.5 0
6 0.5 0
5.875 0.625 0
6 0.625 0
5.75 0.625 0
5.875 0.625 0
5.75 0.75 0
5.875 0.75 0
5.875 0.625 0
6 0.625 0
5.875 0.75 0
6 0.75 0
5.5 0.75 0
5.625 0.75 0
5.5 0.875 0
5.625 0.875 0
5.625 0.75 0
5.75 0.75 0
5.625 0.875 0
5.75 0.875 0
5.5 0.875 0
5.625 0.875 0
5.5 1 0
5.625 1 0
5.625 0.875 0
5.75 0.875 0
5.625 1 0
5.75 1 0
5.75 0.75 0
5.875 0.75 0
5.75 0.875 0
5.875 0.875 0
5.875 0.75 0
6 0.75 0
5.875 0.875 0
6 0.875 0
5.75 0.875 0
5.875 0.875 0
5.75 1 0
5.875 1 0
5.875 0.875 0
6 0.875 0
5.875 1 0
6 1 0
4 0 0
4.125 0 0
4 0.125 0
4.125 0.125 0
4.125 0 0
4.25 0 0
4.125 0.125 0
4.25 0.125 0
4 0.125 0
4.125 0.125 0
4 0.25 0
4.125 0.25 0
4.125 0.125 0
4.25 0.125 0
4.125 0.25 0
4.25 0.25 0
4.25 0 0
4.375 0 0
4.25 0.125 0
4.375 0.125 0
4.375 0 0
4.5 0 0
4.375 0.125 0
4.5 0.125 0
4.25 0.125 0
4.375 0.125 0
4.25 0.25 0
4.375 0.25 0
4.375 0.125 0
4.5 0.125 0
4.375 0.25 0
4.5 0.25 0
4 0.25 0
4.125 0.25 0
4 0.375 0
4.125 0.375 0
4.125 0.25 0
4.25 0.25 0
4.125 0.375 0
4.25 0.375 0
4 0.375 0
4.125 0.375 0
4 0.5 0
4.125 0.5 0
4.125 0.375 0
4.25 0.375 0
4.125 0.5 0
4.25 0.5 0
4.25 0.25 0
4.375 0.25 0
4.25 0.375 0
4.375 0.375 0
4.375 0.25 0
4.5 0.25 0
4.375 0.375 0
4.5 0.375 0
4.25 0.375 0
4.375 0.375 0
4.25 0.5 0
4.375 0.5 0
4.375 0.375 0
4.5 0.375 0
4.375 0.5 0
4.5 0.5 0
4.5 0 0
4.625 0 0
4.5 0.125 0
4.625 0.125 0
4.625 0 0
4.75 0 0
4.625 0.125 0
4.75 0.125 0
4.5 0.125 0
4.625 0.125 0
4.5 0.25 0
4.625 0.25 0
4.625 0.125 0
4.75 0.125 0
4.625 0.25 0
4.75 0.25 0
4.75 0 0
4.875 0 0
4.75 0.125 0
4.875 0.125 0
4.875 0 0
5 0 0
4.875 0.125 0
5 0.125 0
4.75 0.125 0
4.875 0.125 0
4.75 0.25 0
4.875 0.25 0
4.875 0.125 0
5 0.125 0
4.875 0.25 0
5 0.25 0
4.5 0.25 0
4.625 0.25 0
4.5 0.375 0
4.625 0.375 0
4.625 0.25 0
4.75 0.25 0
4.625 0.375 0
4.75 0.375 0
4.5 0.375 0
4.625 0.375 0
4.5 0.5 0
4.625 0.5 0
4.625 0.375 0
4.75 0.375 0
4.625 0.5 0
4.75 0.5 0
4.75 0.25 0
4.875 0.25 0
4.75 0.375 0
4.875 0.375 0
4.875 0.25 0
5 0.25 0
4.875 0.375 0
5 0.375 0
4.75 0.375 0
4.875 0.375 0
4.75 0.5 0
4.875 0.5 0
4.875 0.375 0
5 0.375 0
4.875 0.5 0
5 0.5 0
4 0.5 0
4.125 0.5 0
4 0.625 0
4.125 0.625 0
4.125 0.5 0
4.25 0.5 0
4.125 0.625 0
4.25 0.625 0
4 0.625 0
4.125 0.625 0
4 0.75 0
4.125 0.75 0
4.125 0.625 0
4.25 0.625 0
4.125 0.75 0
4.25 0.75 0
4.25 0.5 0
4.375 0.5 0
4.25 0.625 0
4.375 0.625 0
4.375 0.5 0
4.5 0.5 0
4.375 0.625 0
4.5 0.625 0
4.25 0.625 0
4.375 0.625 0
4.25 0.75 0
4.375 0.75 0
4.375 0.625 0
4.5 0.625 0
4.375 0.75 0
4.5 0.75 0
4 0.75 0
4.125 0.75 0
4 0.875 0
4.125 0.875 0
4.125 0.75 0
4.25 0.75 0
4.125 0.875 0
4.25 0.875 0
4 0.875 0
4.125 0.875 0
4 1 0
4.125 1 0
4.125 0.875 0
4.25 0.875 0
4.125 1 0
4.25 1 0
4.25 0.75 0
4.375 0.75 0
4.25 0.875 0
4.375 0.875 0
4.375 0.75 0
4.5 0.75 0
4.375 0.875 0
4.5 0.875 0
4.25 0.875 0
4.375 0.875 0
4.25 1 0
4.375 1 0
4.375 0.875 0
4.5 0.875 0
4.375 1 0
4.5 1 0
4.5 0.5 0
4.625 0.5 0
4.5 0.625 0
4.625 0.625 0
4.625 0.5 0
4.75 0.5 0
4.625 0.625 0
4.75 0.625 0
4.5 0.625 0
4.625 0.625 0
4.5 0.75 0
4.625 0.75 0
4.625 0.625 0
4.75 0.625 0
4.625 0.75 0
4.75 0.75 0
4.75 0.5 0
4.875 0.5 0
4.75 0.625 0
4.875 0.625 0
4.875 0.5 0
5 0.5 0
4.875 0.625 0
5 0.625 0
4.75 0.625 0
4.875 0.625 0
4.75 0.75 0
4.875 0.75 0
4.875 0.625 0
5 0.625 0
4.875 0.75 0
5 0.75 0
4.5 0.75 0
4.625 0.75 0
4.5 0.875 0
4.625 0.875 0
4.625 0.75 0
4.75 0.75 0
4.625 0.875 0
4.75 0.875 0
4.5 0.875 0
4.625 0.875 0
4.5 1 0
4.625 1 0
4.625 0.875 0
4.75 0.875 0
4.625 1 0
4.75 1 0
4.75 0.75 0
4.875 0.75 0
4.75 0.875 0
4.875 0.875 0
4.875 0.75 0
5 0.75 0
4.875 0.875 0
5 0.875 0
4.75 0.875 0
4.875 0.875 0
4.75 1 0
4.875 1 0
4.875 0.875 0
5 0.875 0
4.875 1 0
5 1 0
3 0 0
3.125 0 0
3 0.125 0
3.125 0.125 0
3.125 0 0
3.25 0 0
3.125 0.125 0
3.25 0.125 0
3 0.125 0
3.125 0.125 0
3 0.25 0
3.125 0.25 0
3.125 0.125 0
3.25 0.125 0
3.125 0.25 0
3.25 0.25 0
3.25 0 0
3.375 0 0
3.25 0.125 0
3.375 0.125 0
3.375 0 0
3.5 0 0
3.375 0.125 0
3.5 0.125 0
3.25 0.125 0
3.375 0.125 0
3.25 0.25 0
3.375 0.25 0
3.375 0.125 0
3.5 0.125 0
3.375 0.25 0
3.5 0.25 0
3 0.25 0
3.125 0.25 0
3 0.375 0
3.125 0.375 0
3.125 0.25 0
3.25 0.25 0
3.125 0.375 0
3.25 0.375 0
3 0.375 0
3.125 0.375 0
3 0.5 0
3.125 0.5 0
3.125 0.375 0
3.25 0.375 0
3.125 0.5 0
3.25 0.5 0
3.25 0.25 0
3.375 0.25 0
3.25 0.375 0
3.375 0.375 0
3.375 0.25 0
3.5 0.25 0
3.375 0.375 0
3.5 0.375 0
3.25 0.375 0
3.375 0.375 0
3.25 0.5 0
3.375 0.5 0
3.375 0.375 0
3.5 0.375 0
3.375 0.5 0
3.5 0.5 0
3.5 0 0
3.625 0 0
3.5 0.125 0
3.625 0.125 0
3.625 0 0
3.75 0 0
3.625 0.125 0
3.75 0.125 0
3.5 0.125 0
3.625 0.125 0
3.5 0.25 0
3.625 0.25 0
3.625 0.125 0
3.75 0.125 0
3.625 0.25 0
3.75 0.25 0
3.75 0 0
3.875 0 0
3.75 0.125 0
3.875 0.125 0
3.875 0 0
4 0 0
3.875 0.125 0
4 0.125 0
3.75 0.125 0
3.875 0.125 0
3.75 0.25 0
3.875 0.25 0
3.875 0.125 0
4 0.125 0
3.875 0.25 0
4 0.25 0
3.5 0.25 0
3.625 0.25 0
3.5 0.375 0
3.625 0.375 0
3.625 0.25 0
3.75 0.25 0
3.625 0.375 0
3.75 0.375 0
3.5 0.375 0
3.625 0.375 0
3.5 0.5 0
3.625 0.5 0
3.625 0.375 0
3.75 0.375 0
3.625 0.5 0
3.75 0.5 0
3.75 0.25 0
3.875 0.25 0
3.75 0.375 0
3.875 0.375 0
3.875 0.25 0
4 0.25 0
3.875 0.375 0
4 0.375 0
3.75 0.375 0
3.875 0.375 0
3.75 0.5 0
3.875 0.5 0
3.875 0.375 0
4 0.375 0
3.875 0.5 0
4 0.5 0
3 0.5 0
3.125 0.5 0
3 0.625 0
3.125 0.625 0
3.125 0.5 0
3.25 0.5 0
3.125 0.625 0
3.25 0.625 0
3 0.625 0
3.125 0.625 0
3 0.75 0
3.125 0.75 0
3.125 0.625 0
3.25 0.625 0
3.125 0.75 0
3.25 0.75 0
3.25 0.5 0
3.375 0.5 0
3.25 0.625 0
3.375 0.625 0
3.375 0.5 0
3.5 0.5 0
3.375 0.625 0
3.5 0.625 0
3.25 0.625 0
3.375 0.625 0
3.25 0.75 0
3.375 0.75 0
3.375 0.625 0
3.5 0.625 0
3.375 0.75 0
3.5 0.75 0
3 0.75 0
3.125 0.75 0
3 0.875 0
3.125 0.875 0
3.125 0.75 0
3.25 0.75 0
3.125 0.875 0
3.25 0.875 0
3 0.875 0
3.125 0.875 0
3 1 0
3.125 1 0
3.125 0.875 0
3.25 0.875 0
3.125 1 0
3.25 1 0
3.25 0.75 0
3.375 0.75 0
3.25 0.875 0
3.375 0.875 0
3.375 0.75 0
3.5 0.75 0
3.375 0.875 0
3.5 0.875 0
3.25 0.875 0
3.375 0.875 0
3.25 1 0
3.375 1 0
3.375 0.875 0
3.5 0.875 0
3.375 1 0
3.5 1 0
3.5 0.5 0
3.625 0.5 0
3.5 0.625 0
3.625 0.625 0
3.625 0.5 0
3.75 0.5 0
3.625 0.625 0
3.75 0.625 0
3.5 0.625 0
3.625 0.625 0
3.5 0.75 0
3.625 0.75 0
3.625 0.625 0
3.75 0.625 0
3.625 0.75 0
3.75 0.75 0
3.75 0.5 0
3.875 0.5 0
3.75 0.625 0
3.875 0.625 0
3.875 0.5 0
4 0.5 0
3.875 0.625 0
4 0.625 0
3.75 0.625 0
3.875 0.625 0
3.75 0.75 0
3.875 0.75 0
3.875 0.625 0
4 0.625 0
3.875 0.75 0
4 0.75 0
3.5 0.75 0
3.625 0.75 0
3.5 0.875 0
3.625 0.875 0
3.625 0.75 0
3.75 0.75 0
3.625 0.875 0
3.75 0.875 0
3.5 0.875 0
3.625 0.875 0
3.5 1 0
3.625 1 0
3.625 0.875 0
3.75 0.875 0
3.625 1 0
3.75 1 0
3.75 0.75 0
3.875 0.75 0
3.75 0.875 0
3.875 0.875 0
3.875 0.75 0
4 0.75 0
3.875 0.875 0
4 0.875 0
3.75 0.875 0
3.875 0.875 0
3.75 1 0
3.875 1 0
3.875 0.875 0
4 0.875 0
3.875 1 0
4 1 0
2 0 0
2.125 0 0
2 0.125 0
2.125 0.125 0
2.125 0 0
2.25 0 0
2.125 0.125 0
2.25 0.125 0
2 0.125 0
2.125 0.125 0
2 0.25 0
2.125 0.25 0
2.125 0.125 0
2.25 0.125 0
2.125 0.25 0
2.25 0.25 0
2.25 0 0
2.375 0 0
2.25 0.125 0
2.375 0.125 0
2.375 0 0
2.5 0 0
2.375 0.125 0
2.5 0.125 0
2.25 0.125 0
2.375 0.125 0
2.25 0.25 0
2.375 0.25 0
2.375 0.125 0
2.5 0.125 0
2.375 0.25 0
2.5 0.25 0
2 0.25 0
2.125 0.25 0
2 0.375 0
2.125 0.375 0
2.125 0.25 0
2.25 0.25 0
2.125 0.375 0
2.25 0.375 0
2 0.375 0
2.125 0.375 0
2 0.5 0
2.125 0.5 0
2.125 0.375 0
2.25 0.375 0
2.125 0.5 0
2.25 0.5 0
2.25 0.25 0
2.375 0.25 0
2.25 0.375 0
2.375 0.375 0
2.375 0.25 0
[...]
POINT_DATA 1536
VECTORS displacements double
38.6662 -45.306 0
39.4024 -40.5257 0
34.0792 -45.526 0
34.6367 -40.7332 0
39.4024 -40.5257 0
40.1167 -35.562 0
34.6367 -40.7332 0
35.1606 -35.7655 0
34.0792 -45.526 0
34.6367 -40.7332 0
30.0044 -45.6822 0
30.3671 -40.8756 0
34.6367 -40.7332 0
35.1606 -35.7655 0
30.3671 -40.8756 0
30.7182 -35.8923 0
40.1167 -35.562 0
40.7952 -30.4216 0
35.1606 -35.7655 0
35.672 -30.6078 0
40.7952 -30.4216 0
41.4724 -25.1063 0
35.672 -30.6078 0
36.1435 -25.2982 0
35.1606 -35.7655 0
35.672 -30.6078 0
30.7182 -35.8923 0
31.0357 -30.7275 0
35.672 -30.6078 0
36.1435 -25.2982 0
31.0357 -30.7275 0
31.3262 -25.3853 0
30.0044 -45.6822 0
30.3671 -40.8756 0
26.0947 -45.7564 0
26.2863 -40.9536 0
30.3671 -40.8756 0
30.7182 -35.8923 0
26.2863 -40.9536 0
26.4352 -35.9465 0
26.0947 -45.7564 0
26.2863 -40.9536 0
22.2624 -45.7657 0
22.2616 -40.9383 0
26.2863 -40.9536 0
26.4352 -35.9465 0
22.2616 -40.9383 0
22.2553 -35.9387 0
30.7182 -35.8923 0
31.0357 -30.7275 0
26.4352 -35.9465 0
26.5792 -30.7612 0
31.0357 -30.7275 0
31.3262 -25.3853 0
26.5792 -30.7612 0
26.6855 -25.4011 0
26.4352 -35.9465 0
26.5792 -30.7612 0
22.2553 -35.9387 0
22.196 -30.7257 0
26.5792 -30.7612 0
26.6855 -25.4011 0
22.196 -30.7257 0
22.1514 -25.3495 0
41.4724 -25.1063 0
42.127 -19.6169 0
36.1435 -25.2982 0
36.6058 -19.7757 0
42.127 -19.6169 0
42.8686 -13.8724 0
36.6058 -19.7757 0
36.9681 -14.0872 0
36.1435 -25.2982 0
36.6058 -19.7757 0
31.3262 -25.3853 0
31.5762 -19.8527 0
36.6058 -19.7757 0
36.9681 -14.0872 0
31.5762 -19.8527 0
31.7559 -14.0966 0
42.8686 -13.8724 0
43.6915 -7.84455 0
36.9681 -14.0872 0
37.1536 -7.76271 0
43.6915 -7.84455 0
44.1264 0 0
37.1536 -7.76271 0
37.3486 -1.41369 0
36.9681 -14.0872 0
37.1536 -7.76271 0
31.7559 -14.0966 0
31.7598 -8.0456 0
37.1536 -7.76271 0
37.3486 -1.41369 0
31.7598 -8.0456 0
31.8981 -2.35794 0
31.3262 -25.3853 0
31.5762 -19.8527 0
26.6855 -25.4011 0
26.762 -19.8638 0
31.5762 -19.8527 0
31.7559 -14.0966 0
26.762 -19.8638 0
26.7154 -14.1675 0
26.6855 -25.4011 0
26.762 -19.8638 0
22.1514 -25.3495 0
22.0391 -19.8879 0
26.762 -19.8638 0
26.7154 -14.1675 0
22.0391 -19.8879 0
21.9163 -14.3528 0
31.7559 -14.0966 0
31.7598 -8.0456 0
26.7154 -14.1675 0
26.7134 -8.48714 0
31.7598 -8.0456 0
31.8981 -2.35794 0
26.7134 -8.48714 0
26.79 -2.96889 0
26.7154 -14.1675 0
26.7134 -8.48714 0
21.9163 -14.3528 0
21.8646 -8.82735 0
26.7134 -8.48714 0
26.79 -2.96889 0
21.8646 -8.82735 0
21.9374 -3.55432 0
22.2624 -45.7657 0
22.2616 -40.9383 0
18.4295 -45.6918 0
18.2375 -40.8708 0
22.2616 -40.9383 0
22.2553 -35.9387 0
18.2375 -40.8708 0
18.0349 -35.8314 0
18.4295 -45.6918 0
18.2375 -40.8708 0
14.4971 -45.5416 0
14.1258 -40.7216 0
18.2375 -40.8708 0
18.0349 -35.8314 0
14.1258 -40.7216 0
13.7477 -35.7178 0
22.2553 -35.9387 0
22.196 -30.7257 0
18.0349 -35.8314 0
17.8451 -30.6416 0
22.196 -30.7257 0
22.1514 -25.3495 0
17.8451 -30.6416 0
17.613 -25.3315 0
18.0349 -35.8314 0
17.8451 -30.6416 0
13.7477 -35.7178 0
13.3564 -30.5654 0
17.8451 -30.6416 0
17.613 -25.3315 0
13.3564 -30.5654 0
13.0083 -25.3006 0
14.4971 -45.5416 0
14.1258 -40.7216 0
10.3484 -45.3501 0
9.76895 -40.5478 0
14.1258 -40.7216 0
13.7477 -35.7178 0
9.76895 -40.5478 0
9.22129 -35.5853 0
10.3484 -45.3501 0
9.76895 -40.5478 0
5.82263 -45.1296 0
5.15632 -40.343 0
9.76895 -40.5478 0
9.22129 -35.5853 0
5.15632 -40.343 0
4.59964 -35.4543 0
13.7477 -35.7178 0
13.3564 -30.5654 0
9.22129 -35.5853 0
8.76976 -30.4685 0
13.3564 -30.5654 0
13.0083 -25.3006 0
8.76976 -30.4685 0
8.42127 -25.2886 0
9.22129 -35.5853 0
8.76976 -30.4685 0
4.59964 -35.4543 0
4.0678 -30.3917 0
8.76976 -30.4685 0
8.42127 -25.2886 0
4.0678 -30.3917 0
3.53064 -25.1805 0
22.1514 -25.3495 0
22.0391 -19.8879 0
17.613 -25.3315 0
17.3772 -19.9377 0
22.0391 -19.8879 0
21.9163 -14.3528 0
17.3772 -19.9377 0
17.2321 -14.5174 0
17.613 -25.3315 0
17.3772 -19.9377 0
13.0083 -25.3006 0
12.7752 -19.992 0
17.3772 -19.9377 0
17.2321 -14.5174 0
12.7752 -19.992 0
12.5909 -14.6322 0
21.9163 -14.3528 0
21.8646 -8.82735 0
17.2321 -14.5174 0
17.1668 -9.11976 0
21.8646 -8.82735 0
21.9374 -3.55432 0
17.1668 -9.11976 0
17.233 -4.0398 0
17.2321 -14.5174 0
17.1668 -9.11976 0
12.5909 -14.6322 0
12.5129 -9.33653 0
17.1668 -9.11976 0
17.233 -4.0398 0
12.5129 -9.33653 0
12.5387 -4.33482 0
13.0083 -25.3006 0
12.7752 -19.992 0
8.42127 -25.2886 0
8.09653 -19.9895 0
12.7752 -19.992 0
12.5909 -14.6322 0
8.09653 -19.9895 0
7.8609 -14.6645 0
8.42127 -25.2886 0
8.09653 -19.9895 0
3.53064 -25.1805 0
3.10856 -19.906 0
8.09653 -19.9895 0
7.8609 -14.6645 0
3.10856 -19.906 0
2.84913 -14.6291 0
12.5909 -14.6322 0
12.5129 -9.33653 0
7.8609 -14.6645 0
7.74494 -9.44169 0
12.5129 -9.33653 0
12.5387 -4.33482 0
7.74494 -9.44169 0
7.7252 -4.43052 0
7.8609 -14.6645 0
7.74494 -9.44169 0
2.84913 -14.6291 0
2.76215 -9.45872 0
7.74494 -9.44169 0
7.7252 -4.43052 0
2.76215 -9.45872 0
2.75635 -4.43686 0
31.5641 -75.9807 0
32.5794 -72.979 0
28.8043 -76.2773 0
29.5418 -73.265 0
32.5794 -72.979 0
33.5515 -69.7111 0
29.5418 -73.265 0
30.2592 -69.986 0
28.8043 -76.2773 0
29.5418 -73.265 0
26.4762 -76.4728 0
26.933 -73.4542 0
29.5418 -73.265 0
30.2592 -69.986 0
26.933 -73.4542 0
27.3939 -70.167 0
33.5515 -69.7111 0
34.4864 -66.1982 0
30.2592 -69.986 0
30.9532 -66.4627 0
34.4864 -66.1982 0
35.3894 -62.4518 0
30.9532 -66.4627 0
31.6216 -62.7085 0
30.2592 -69.986 0
30.9532 -66.4627 0
27.3939 -70.167 0
27.8565 -66.6334 0
30.9532 -66.4627 0
31.6216 -62.7085 0
27.8565 -66.6334 0
28.3142 -62.8719 0
26.4762 -76.4728 0
26.933 -73.4542 0
24.3721 -76.5652 0
24.5508 -73.5419 0
26.933 -73.4542 0
27.3939 -70.167 0
24.5508 -73.5419 0
24.7487 -70.252 0
24.3721 -76.5652 0
24.5508 -73.5419 0
22.3336 -76.5548 0
22.25 -73.5284 0
24.5508 -73.5419 0
24.7487 -70.252 0
22.25 -73.5284 0
22.1999 -70.2416 0
27.3939 -70.167 0
27.8565 -66.6334 0
24.7487 -70.252 0
24.9658 -66.7164 0
27.8565 -66.6334 0
28.3142 -62.8719 0
24.9658 -66.7164 0
25.1964 -62.9529 0
24.7487 -70.252 0
24.9658 -66.7164 0
22.1999 -70.2416 0
22.1788 -66.7122 0
24.9658 -66.7164 0
25.1964 -62.9529 0
22.1788 -66.7122 0
22.1789 -62.9526 0
35.3894 -62.4518 0
36.2578 -58.4785 0
31.6216 -62.7085 0
32.2705 -58.7263 0
36.2578 -58.4785 0
37.0918 -54.291 0
32.2705 -58.7263 0
32.8988 -54.5289 0
31.6216 -62.7085 0
32.2705 -58.7263 0
28.3142 -62.8719 0
28.7601 -58.893 0
32.2705 -58.7263 0
32.8988 -54.5289 0
28.7601 -58.893 0
29.1922 -54.6944 0
37.0918 -54.291 0
37.8951 -49.8988 0
32.8988 -54.5289 0
33.501 -50.1278 0
37.8951 -49.8988 0
38.6662 -45.306 0
33.501 -50.1278 0
34.0792 -45.526 0
32.8988 -54.5289 0
33.501 -50.1278 0
29.1922 -54.6944 0
29.6085 -50.2862 0
33.501 -50.1278 0
34.0792 -45.526 0
29.6085 -50.2862 0
30.0044 -45.6822 0
28.3142 -62.8719 0
28.7601 -58.893 0
25.1964 -62.9529 0
25.4334 -58.9723 0
28.7601 -58.893 0
29.1922 -54.6944 0
25.4334 -58.9723 0
25.6674 -54.7809 0
25.1964 -62.9529 0
25.4334 -58.9723 0
22.1789 -62.9526 0
22.1945 -58.9734 0
25.4334 -58.9723 0
25.6674 -54.7809 0
22.1945 -58.9734 0
22.221 -54.7816 0
29.1922 -54.6944 0
29.6085 -50.2862 0
25.6674 -54.7809 0
25.8887 -50.3741 0
29.6085 -50.2862 0
30.0044 -45.6822 0
25.8887 -50.3741 0
26.0947 -45.7564 0
25.6674 -54.7809 0
25.8887 -50.3741 0
22.221 -54.7816 0
22.249 -50.3801 0
25.8887 -50.3741 0
26.0947 -45.7564 0
22.249 -50.3801 0
22.2624 -45.7657 0
22.3336 -76.5548 0
22.25 -73.5284 0
20.2605 -76.4478 0
19.9403 -73.4203 0
22.25 -73.5284 0
22.1999 -70.2416 0
19.9403 -73.4203 0
19.658 -70.1459 0
20.2605 -76.4478 0
19.9403 -73.4203 0
18.0866 -76.2543 0
17.5475 -73.2392 0
19.9403 -73.4203 0
19.658 -70.1459 0
17.5475 -73.2392 0
17.039 -69.9812 0
22.1999 -70.2416 0
22.1788 -66.7122 0
19.658 -70.1459 0
19.407 -66.63 0
22.1788 -66.7122 0
22.1789 -62.9526 0
19.407 -66.63 0
19.1803 -62.8802 0
19.658 -70.1459 0
19.407 -66.63 0
17.039 -69.9812 0
16.5593 -66.4814 0
19.407 -66.63 0
19.1803 -62.8802 0
16.5593 -66.4814 0
16.1052 -62.7429 0
18.0866 -76.2543 0
17.5475 -73.2392 0
15.6986 -76.012 0
14.94 -73.0071 0
17.5475 -73.2392 0
17.039 -69.9812 0
14.94 -73.0071 0
14.2084 -69.7617 0
15.6986 -76.012 0
14.94 -73.0071 0
12.8825 -75.7158 0
11.893 -72.719 0
14.94 -73.0071 0
14.2084 -69.7617 0
11.893 -72.719 0
10.9274 -69.4824 0
17.039 -69.9812 0
16.5593 -66.4814 0
14.2084 -69.7617 0
13.5036 -66.2742 0
16.5593 -66.4814 0
16.1052 -62.7429 0
13.5036 -66.2742 0
12.8254 -62.546 0
14.2084 -69.7617 0
13.5036 -66.2742 0
10.9274 -69.4824 0
9.98877 -66.0042 0
13.5036 -66.2742 0
12.8254 -62.546 0
9.98877 -66.0042 0
9.08001 -62.2855 0
22.1789 -62.9526 0
22.1945 -58.9734 0
19.1803 -62.8802 0
18.9729 -58.904 0
22.1945 -58.9734 0
22.221 -54.7816 0
18.9729 -58.904 0
18.781 -54.7094 0
19.1803 -62.8802 0
18.9729 -58.904 0
16.1052 -62.7429 0
15.6742 -58.7719 0
18.9729 -58.904 0
18.781 -54.7094 0
15.6742 -58.7719 0
15.2645 -54.5752 0
22.221 -54.7816 0
22.249 -50.3801 0
18.781 -54.7094 0
18.6032 -50.3045 0
22.249 -50.3801 0
22.2624 -45.7657 0
18.6032 -50.3045 0
18.4295 -45.6918 0
18.781 -54.7094 0
18.6032 -50.3045 0
15.2645 -54.5752 0
14.8733 -50.1615 0
18.6032 -50.3045 0
18.4295 -45.6918 0
14.8733 -50.1615 0
14.4971 -45.5416 0
16.1052 -62.7429 0
15.6742 -58.7719 0
12.8254 -62.546 0
12.1728 -58.5813 0
15.6742 -58.7719 0
15.2645 -54.5752 0
12.1728 -58.5813 0
11.5446 -54.3866 0
12.8254 -62.546 0
12.1728 -58.5813 0
9.08001 -62.2855 0
8.20404 -58.3306 0
12.1728 -58.5813 0
11.5446 -54.3866 0
8.20404 -58.3306 0
7.36447 -54.1457 0
15.2645 -54.5752 0
14.8733 -50.1615 0
11.5446 -54.3866 0
10.9384 -49.9716 0
14.8733 -50.1615 0
14.4971 -45.5416 0
10.9384 -49.9716 0
10.3484 -45.3501 0
11.5446 -54.3866 0
10.9384 -49.9716 0
7.36447 -54.1457 0
6.56679 -49.7403 0
10.9384 -49.9716 0
10.3484 -45.3501 0
6.56679 -49.7403 0
5.82263 -45.1296 0
22.0632 -87.9123 0
23.3413 -87.7119 0
22.0632 -88.2804 0
22.9649 -88.0783 0
23.3413 -87.7119 0
24.6062 -87.1172 0
22.9649 -88.0783 0
23.8635 -87.4787 0
22.0632 -88.2804 0
22.9649 -88.0783 0
22.0632 -88.7304 0
22.7857 -88.5046 0
22.9649 -88.0783 0
23.8635 -87.4787 0
22.7857 -88.5046 0
23.4563 -87.843 0
24.6062 -87.1172 0
25.8479 -86.1446 0
23.8635 -87.4787 0
24.7531 -86.4984 0
25.8479 -86.1446 0
27.062 -84.8101 0
24.7531 -86.4984 0
25.6222 -85.1538 0
23.8635 -87.4787 0
24.7531 -86.4984 0
23.4563 -87.843 0
24.0498 -86.8043 0
24.7531 -86.4984 0
25.6222 -85.1538 0
24.0498 -86.8043 0
24.5821 -85.4232 0
22.0632 -88.7304 0
22.7857 -88.5046 0
22.0632 -89.253 0
22.5959 -89.007 0
22.7857 -88.5046 0
23.4563 -87.843 0
22.5959 -89.007 0
23.0648 -88.2934 0
22.0632 -89.253 0
22.5959 -89.007 0
22.0632 -89.7685 0
22.3897 -89.5028 0
22.5959 -89.007 0
23.0648 -88.2934 0
22.3897 -89.5028 0
22.6371 -88.722 0
23.4563 -87.843 0
24.0498 -86.8043 0
23.0648 -88.2934 0
23.4261 -87.1624 0
24.0498 -86.8043 0
24.5821 -85.4232 0
23.4261 -87.1624 0
23.6996 -85.6902 0
23.0648 -88.2934 0
23.4261 -87.1624 0
22.6371 -88.722 0
22.7583 -87.4857 0
23.4261 -87.1624 0
23.6996 -85.6902 0
22.7583 -87.4857 0
22.7634 -85.8882 0
27.062 -84.8101 0
28.2469 -83.118 0
25.6222 -85.1538 0
26.4593 -83.4514 0
28.2469 -83.118 0
29.3943 -81.0735 0
26.4593 -83.4514 0
27.2692 -81.394 0
25.6222 -85.1538 0
26.4593 -83.4514 0
24.5821 -85.4232 0
25.0888 -83.6946 0
26.4593 -83.4514 0
27.2692 -81.394 0
25.0888 -83.6946 0
25.5655 -81.6202 0
29.3943 -81.0735 0
30.5021 -78.6887 0
27.2692 -81.394 0
28.0478 -78.9982 0
30.5021 -78.6887 0
31.5641 -75.9807 0
28.0478 -78.9982 0
28.8043 -76.2773 0
27.2692 -81.394 0
28.0478 -78.9982 0
25.5655 -81.6202 0
26.0183 -79.2016 0
28.0478 -78.9982 0
28.8043 -76.2773 0
26.0183 -79.2016 0
26.4762 -76.4728 0
24.5821 -85.4232 0
25.0888 -83.6946 0
23.6996 -85.6902 0
23.9009 -83.8789 0
25.0888 -83.6946 0
25.5655 -81.6202 0
23.9009 -83.8789 0
24.0559 -81.7452 0
23.6996 -85.6902 0
23.9009 -83.8789 0
22.7634 -85.8882 0
22.6884 -83.9739 0
23.9009 -83.8789 0
24.0559 -81.7452 0
22.6884 -83.9739 0
22.5701 -81.7775 0
25.5655 -81.6202 0
26.0183 -79.2016 0
24.0559 -81.7452 0
24.211 -79.3013 0
26.0183 -79.2016 0
26.4762 -76.4728 0
24.211 -79.3013 0
24.3721 -76.5652 0
24.0559 -81.7452 0
24.211 -79.3013 0
22.5701 -81.7775 0
22.4446 -79.307 0
24.211 -79.3013 0
24.3721 -76.5652 0
22.4446 -79.307 0
22.3336 -76.5548 0
22.0632 -89.7685 0
22.3897 -89.5028 0
22.0632 -90.2827 0
22.1577 -89.9787 0
22.3897 -89.5028 0
22.6371 -88.722 0
22.1577 -89.9787 0
22.1512 -89.0896 0
22.0632 -90.2827 0
22.1577 -89.9787 0
22.0632 -90.7779 0
21.8446 -90.4232 0
22.1577 -89.9787 0
22.1512 -89.0896 0
21.8446 -90.4232 0
21.522 -89.2929 0
22.6371 -88.722 0
22.7583 -87.4857 0
22.1512 -89.0896 0
21.9866 -87.6939 0
22.7583 -87.4857 0
22.7634 -85.8882 0
21.9866 -87.6939 0
21.7195 -85.9696 0
22.1512 -89.0896 0
21.9866 -87.6939 0
21.522 -89.2929 0
21.0581 -87.7424 0
21.9866 -87.6939 0
21.7195 -85.9696 0
21.0581 -87.7424 0
20.4909 -85.9168 0
22.0632 -90.7779 0
21.8446 -90.4232 0
22.0632 -91.2638 0
21.4456 -90.6188 0
21.8446 -90.4232 0
21.522 -89.2929 0
21.4456 -90.6188 0
20.6753 -89.2471 0
22.0632 -91.2638 0
21.4456 -90.6188 0
22.0632 -91.2455 0
20.5843 -90.4689 0
21.4456 -90.6188 0
20.6753 -89.2471 0
20.5843 -90.4689 0
19.3026 -88.9218 0
21.522 -89.2929 0
21.0581 -87.7424 0
20.6753 -89.2471 0
19.8209 -87.5976 0
21.0581 -87.7424 0
20.4909 -85.9168 0
19.8209 -87.5976 0
18.9638 -85.7278 0
20.6753 -89.2471 0
19.8209 -87.5976 0
19.3026 -88.9218 0
18.1504 -87.2764 0
19.8209 -87.5976 0
18.9638 -85.7278 0
18.1504 -87.2764 0
17.049 -85.4071 0
22.7634 -85.8882 0
22.6884 -83.9739 0
21.7195 -85.9696 0
21.3723 -83.9702 0
22.6884 -83.9739 0
22.5701 -81.7775 0
21.3723 -83.9702 0
20.9959 -81.7212 0
21.7195 -85.9696 0
21.3723 -83.9702 0
20.4909 -85.9168 0
19.8862 -83.8593 0
21.3723 -83.9702 0
20.9959 -81.7212 0
19.8862 -83.8593 0
19.2669 -81.5678 0
22.5701 -81.7775 0
22.4446 -79.307 0
20.9959 -81.7212 0
20.6176 -79.2171 0
22.4446 -79.307 0
22.3336 -76.5548 0
20.6176 -79.2171 0
20.2605 -76.4478 0
20.9959 -81.7212 0
20.6176 -79.2171 0
19.2669 -81.5678 0
18.6598 -79.0302 0
20.6176 -79.2171 0
20.2605 -76.4478 0
18.6598 -79.0302 0
18.0866 -76.2543 0
20.4909 -85.9168 0
19.8862 -83.8593 0
18.9638 -85.7278 0
18.1189 -83.6356 0
19.8862 -83.8593 0
19.2669 -81.5678 0
18.1189 -83.6356 0
17.2911 -81.3214 0
18.9638 -85.7278 0
18.1189 -83.6356 0
17.049 -85.4071 0
15.9758 -83.32 0
18.1189 -83.6356 0
17.2911 -81.3214 0
15.9758 -83.32 0
14.9243 -81.0114 0
19.2669 -81.5678 0
18.6598 -79.0302 0
17.2911 -81.3214 0
16.4833 -78.7816 0
18.6598 -79.0302 0
18.0866 -76.2543 0
16.4833 -78.7816 0
15.6986 -76.012 0
17.2911 -81.3214 0
16.4833 -78.7816 0
14.9243 -81.0114 0
13.8932 -78.4781 0
16.4833 -78.7816 0
15.6986 -76.012 0
13.8932 -78.4781 0
12.8825 -75.7158 0
12.5624 -75.9807 0
13.6244 -78.6887 0
15.3221 -76.2773 0
16.0786 -78.9982 0
13.6244 -78.6887 0
14.7321 -81.0735 0
16.0786 -78.9982 0
16.8572 -81.394 0
15.3221 -76.2773 0
16.0786 -78.9982 0
17.6502 -76.4728 0
18.1081 -79.2016 0
16.0786 -78.9982 0
16.8572 -81.394 0
18.1081 -79.2016 0
18.5609 -81.6202 0
14.7321 -81.0735 0
15.8795 -83.118 0
16.8572 -81.394 0
17.6671 -83.4514 0
15.8795 -83.118 0
17.0644 -84.8101 0
17.6671 -83.4514 0
18.5042 -85.1538 0
16.8572 -81.394 0
17.6671 -83.4514 0
18.5609 -81.6202 0
19.0376 -83.6946 0
17.6671 -83.4514 0
18.5042 -85.1538 0
19.0376 -83.6946 0
19.5444 -85.4232 0
17.6502 -76.4728 0
18.1081 -79.2016 0
19.7543 -76.5652 0
19.9154 -79.3013 0
18.1081 -79.2016 0
18.5609 -81.6202 0
19.9154 -79.3013 0
20.0705 -81.7452 0
19.7543 -76.5652 0
19.9154 -79.3013 0
21.7928 -76.5548 0
21.6818 -79.307 0
19.9154 -79.3013 0
20.0705 -81.7452 0
21.6818 -79.307 0
21.5563 -81.7775 0
18.5609 -81.6202 0
19.0376 -83.6946 0
20.0705 -81.7452 0
20.2255 -83.8789 0
19.0376 -83.6946 0
19.5444 -85.4232 0
20.2255 -83.8789 0
20.4268 -85.6902 0
20.0705 -81.7452 0
20.2255 -83.8789 0
21.5563 -81.7775 0
21.438 -83.9739 0
20.2255 -83.8789 0
20.4268 -85.6902 0
21.438 -83.9739 0
21.363 -85.8882 0
17.0644 -84.8101 0
18.2785 -86.1446 0
18.5042 -85.1538 0
19.3733 -86.4984 0
18.2785 -86.1446 0
19.5202 -87.1172 0
19.3733 -86.4984 0
20.263 -87.4787 0
18.5042 -85.1538 0
19.3733 -86.4984 0
19.5444 -85.4232 0
20.0766 -86.8043 0
19.3733 -86.4984 0
20.263 -87.4787 0
20.0766 -86.8043 0
20.6701 -87.843 0
19.5202 -87.1172 0
20.7851 -87.7119 0
20.263 -87.4787 0
21.1615 -88.0783 0
20.7851 -87.7119 0
22.0632 -87.9123 0
21.1615 -88.0783 0
22.0632 -88.2804 0
20.263 -87.4787 0
21.1615 -88.0783 0
20.6701 -87.843 0
21.3408 -88.5046 0
21.1615 -88.0783 0
22.0632 -88.2804 0
21.3408 -88.5046 0
22.0632 -88.7304 0
19.5444 -85.4232 0
20.0766 -86.8043 0
20.4268 -85.6902 0
20.7003 -87.1624 0
20.0766 -86.8043 0
20.6701 -87.843 0
20.7003 -87.1624 0
21.0616 -88.2934 0
20.4268 -85.6902 0
20.7003 -87.1624 0
21.363 -85.8882 0
21.3681 -87.4857 0
20.7003 -87.1624 0
21.0616 -88.2934 0
21.3681 -87.4857 0
21.4893 -88.722 0
20.6701 -87.843 0
21.3408 -88.5046 0
21.0616 -88.2934 0
21.5305 -89.007 0
21.3408 -88.5046 0
22.0632 -88.7304 0
21.5305 -89.007 0
22.0632 -89.253 0
21.0616 -88.2934 0
21.5305 -89.007 0
21.4893 -88.722 0
21.7367 -89.5028 0
21.5305 -89.007 0
22.0632 -89.253 0
21.7367 -89.5028 0
22.0632 -89.7685 0
21.7928 -76.5548 0
21.6818 -79.307 0
23.8659 -76.4478 0
23.5088 -79.2171 0
21.6818 -79.307 0
21.5563 -81.7775 0
23.5088 -79.2171 0
23.1305 -81.7212 0
23.8659 -76.4478 0
23.5088 -79.2171 0
26.0398 -76.2543 0
25.4666 -79.0302 0
23.5088 -79.2171 0
23.1305 -81.7212 0
25.4666 -79.0302 0
24.8595 -81.5678 0
21.5563 -81.7775 0
21.438 -83.9739 0
23.1305 -81.7212 0
22.7541 -83.9702 0
21.438 -83.9739 0
21.363 -85.8882 0
22.7541 -83.9702 0
22.4069 -85.9696 0
23.1305 -81.7212 0
22.7541 -83.9702 0
24.8595 -81.5678 0
24.2402 -83.8593 0
22.7541 -83.9702 0
22.4069 -85.9696 0
24.2402 -83.8593 0
23.6356 -85.9168 0
26.0398 -76.2543 0
25.4666 -79.0302 0
28.4278 -76.012 0
27.6432 -78.7816 0
25.4666 -79.0302 0
24.8595 -81.5678 0
27.6432 -78.7816 0
26.8353 -81.3214 0
28.4278 -76.012 0
27.6432 -78.7816 0
31.244 -75.7158 0
30.2332 -78.4781 0
27.6432 -78.7816 0
26.8353 -81.3214 0
30.2332 -78.4781 0
29.2021 -81.0114 0
24.8595 -81.5678 0
24.2402 -83.8593 0
26.8353 -81.3214 0
26.0076 -83.6356 0
24.2402 -83.8593 0
23.6356 -85.9168 0
26.0076 -83.6356 0
25.1626 -85.7278 0
26.8353 -81.3214 0
26.0076 -83.6356 0
29.2021 -81.0114 0
28.1507 -83.32 0
26.0076 -83.6356 0
25.1626 -85.7278 0
28.1507 -83.32 0
27.0774 -85.4071 0
21.363 -85.8882 0
21.3681 -87.4857 0
22.4069 -85.9696 0
22.1398 -87.6939 0
21.3681 -87.4857 0
21.4893 -88.722 0
22.1398 -87.6939 0
21.9752 -89.0896 0
22.4069 -85.9696 0
22.1398 -87.6939 0
23.6356 -85.9168 0
23.0683 -87.7424 0
22.1398 -87.6939 0
21.9752 -89.0896 0
23.0683 -87.7424 0
22.6044 -89.2929 0
21.4893 -88.722 0
21.7367 -89.5028 0
21.9752 -89.0896 0
21.9688 -89.9787 0
21.7367 -89.5028 0
22.0632 -89.7685 0
21.9688 -89.9787 0
22.0632 -90.2827 0
21.9752 -89.0896 0
21.9688 -89.9787 0
22.6044 -89.2929 0
22.2818 -90.4232 0
21.9688 -89.9787 0
22.0632 -90.2827 0
22.2818 -90.4232 0
22.0632 -90.7779 0
23.6356 -85.9168 0
23.0683 -87.7424 0
25.1626 -85.7278 0
24.3055 -87.5976 0
23.0683 -87.7424 0
22.6044 -89.2929 0
24.3055 -87.5976 0
23.4512 -89.2471 0
25.1626 -85.7278 0
24.3055 -87.5976 0
27.0774 -85.4071 0
25.976 -87.2764 0
24.3055 -87.5976 0
23.4512 -89.2471 0
25.976 -87.2764 0
24.8238 -88.9218 0
22.6044 -89.2929 0
22.2818 -90.4232 0
23.4512 -89.2471 0
22.6808 -90.6188 0
22.2818 -90.4232 0
22.0632 -90.7779 0
22.6808 -90.6188 0
22.0632 -91.2638 0
23.4512 -89.2471 0
22.6808 -90.6188 0
24.8238 -88.9218 0
23.5421 -90.4689 0
22.6808 -90.6188 0
22.0632 -91.2638 0
23.5421 -90.4689 0
22.0632 -91.2455 0
5.46027 -45.306 0
6.23133 -49.8988 0
10.0472 -45.526 0
10.6254 -50.1278 0
6.23133 -49.8988 0
7.03459 -54.291 0
10.6254 -50.1278 0
11.2276 -54.5289 0
10.0472 -45.526 0
10.6254 -50.1278 0
14.1221 -45.6822 0
14.5179 -50.2862 0
10.6254 -50.1278 0
11.2276 -54.5289 0
14.5179 -50.2862 0
14.9343 -54.6944 0
7.03459 -54.291 0
7.86857 -58.4785 0
11.2276 -54.5289 0
11.8559 -58.7263 0
7.86857 -58.4785 0
8.73704 -62.4518 0
11.8559 -58.7263 0
12.5048 -62.7085 0
11.2276 -54.5289 0
11.8559 -58.7263 0
14.9343 -54.6944 0
15.3664 -58.893 0
11.8559 -58.7263 0
12.5048 -62.7085 0
15.3664 -58.893 0
15.8122 -62.8719 0
14.1221 -45.6822 0
14.5179 -50.2862 0
18.0317 -45.7564 0
18.2377 -50.3741 0
14.5179 -50.2862 0
14.9343 -54.6944 0
18.2377 -50.3741 0