# vtk DataFile Version 3.0
#This file was generated by the deal.II library on 2020/9/2 at 8:39:14
ASCII
DATASET UNSTRUCTURED_GRID

POINTS 1536 double
5 0 0
5.125 0 0
5 0.125 0
5.125 0.125 0
5.125 0 0
5.25 0 0
5.125 0.125 0
5.25 0.125 0
5 0.125 0
5.125 0.125 0
5 0.25 0
5.125 0.25 0
5.125 0.125 0
5.25 0.125 0
5.125 0.25 0
5.25 0.25 0
5.25 0 0
5.375 0 0
5.25 0.125 0
5.375 0.125 0
5.375 0 0
5.5 0 0
5.375 0.125 0
5.5 0.125 0
5.25 0.125 0
5.375 0.125 0
5.25 0.25 0
5.375 0.25 0
5.375 0.125 0
5.5 0.125 0
5.375 0.25 0
5.5 0.25 0
5 0.25 0
5.125 0.25 0
5 0.375 0
5.125 0.375 0
5.125 0.25 0
5.25 0.25 0
5.125 0.375 0
5.25 0.375 0
5 0.375 0
5.125 0.375 0
5 0.5 0
5.125 0.5 0
5.125 0.375 0
5.25 0.375 0
5.125 0.5 0
5.25 0.5 0
5.25 0.25 0
5.375 0.25 0
5.25 0.375 0
5.375 0.375 0
5.375 0.25 0
5.5 0.25 0
5.375 0.375 0
5.5 0.375 0
5.25 0.375 0
5.375 0.375 0
5.25 0.5 0
5.375 0.5 0
5.375 0.375 0
5.5 0.375 0
5.375 0.5 0
5.5 0.5 0
5.5 0 0
5.625 0 0
5.5 0.125 0
5.625 0.125 0
5.625 0 0
5.75 0 0
5.625 0.125 0
5.75 0.125 0
5.5 0.125 0
5.625 0.125 0
5.5 0.25 0
5.625 0.25 0
5.625 0.125 0
5.75 0.125 0
5.625 0.25 0
5.75 0.25 0
5.75 0 0
5.875 0 0
5.75 0.125 0
5.875 0.125 0
5.875 0 0
6 0 0
5.875 0.125 0
6 0.125 0
5.75 0.125 0
5.875 0.125 0
5.75 0.25 0
5.875 0.25 0
5.875 0.125 0
6 0.125 0
5.875 0.25 0
6 0.25 0
5.5 0.25 0
5.625 0.25 0
5.5 0.375 0
5.625 0.375 0
5.625 0.25 0
5.75 0.25 0
5.625 0.375 0
5.75 0.375 0
5.5 0.375 0
5.625 0.375 0
5.5 0.5 0
5.625 0.5 0
5.625 0.375 0
5.75 0.375 0
5.625 0.5 0
5.75 0.5 0
5.75 0.25 0
5.875 0.25 0
5.75 0.375 0
5.875 0.375 0
5.875 0.25 0
6 0.25 0
5.875 0.375 0
6 0.375 0
5.75 0.375 0
5.875 0.375 0
5.75 0.5 0
5.875 0.5 0
5.875 0.375 0
6 0.375 0
5.875 0.5 0
6 0.5 0
5 0.5 0
5.125 0.5 0
5 0.625 0
5.125 0.625 0
5.125 0.5 0
5.25 0.5 0
5.125 0.625 0
5.25 0.625 0
5 0.625 0
5.125 0.625 0
5 0.75 0
5.125 0.75 0
5.125 0.625 0
5.25 0.625 0
5.125 0.75 0
5.25 0.75 0
5.25 0.5 0
5.375 0.5 0
5.25 0.625 0
5.375 0.625 0
5.375 0.5 0
5.5 0.5 0
5.375 0.625 0
5.5 0.625 0
5.25 0.625 0
5.375 0.625 0
5.25 0.75 0
5.375 0.75 0
5.375 0.625 0
5.5 0.625 0
5.375 0.75 0
5.5 0.75 0
5 0.75 0
5.125 0.75 0
5 0.875 0
5.125 0.875 0
5.125 0.75 0
5.25 0.75 0
5.125 0.875 0
5.25 0.875 0
5 0.875 0
5.125 0.875 0
5 1 0
5.125 1 0
5.125 0.875 0
5.25 0.875 0
5.125 1 0
5.25 1 0
5.25 0.75 0
5.375 0.75 0
5.25 0.875 0
5.375 0.875 0
5.375 0.75 0
5.5 0.75 0
5.375 0.875 0
5.5 0.875 0
5.25 0.875 0
5.375 0.875 0
5.25 1 0
5.375 1 0
5.375 0.875 0
5.5 0.875 0
5.375 1 0
5.5 1 0
5.5 0.5 0
5.625 0.5 0
5.5 0.625 0
5.625 0.625 0
5.625 0.5 0
5.75 0.5 0
5.625 0.625 0
5.75 0.625 0
5.5 0.625 0
5.625 0.625 0
5.5 0.75 0
5.625 0.75 0
5.625 0.625 0
5.75 0.625 0
5.625 0.75 0
5.75 0.75 0
5.75 0.5 0
5.875 0.5 0
5.75 0.625 0
5.875 0.625 0
5.875 0.5 0
6 0.5 0
5.875 0.625 0
6 0.625 0
5.75 0.625 0
5.875 0.625 0
5.75 0.75 0
5.875 0.75 0
5.875 0.625 0
6 0.625 0
5.875 0.75 0
6 0.75 0
5.5 0.75 0
5.625 0.75 0
5.5 0.875 0
5.625 0.875 0
5.625 0.75 0
5.75 0.75 0
5.625 0.875 0
5.75 0.875 0
5.5 0.875 0
5.625 0.875 0
5.5 1 0
5.625 1 0
5.625 0.875 0
5.75 0.875 0
5.625 1 0
5.75 1 0
5.75 0.75 0
5.875 0.75 0
5.75 0.875 0
5.875 0.875 0
5.875 0.75 0
6 0.75 0
5.875 0.875 0
6 0.875 0
5.75 0.875 0
5.875 0.875 0
5.75 1 0
5.875 1 0
5.875 0.875 0
6 0.875 0
5.875 1 0
6 1 0
4 0 0
4.125 0 0
4 0.125 0
4.125 0.125 0
4.125 0 0
4.25 0 0
4.125 0.125 0
4.25 0.125 0
4 0.125 0
4.125 0.125 0
4 0.25 0
4.125 0.25 0
4.125 0.125 0
4.25 0.125 0
4.125 0.25 0
4.25 0.25 0
4.25 0 0
4.375 0 0
4.25 0.125 0
4.375 0.125 0
4.375 0 0
4.5 0 0
4.375 0.125 0
4.5 0.125 0
4.25 0.125 0
4.375 0.125 0
4.25 0.25 0
4.375 0.25 0
4.375 0.125 0
4.5 0.125 0
4.375 0.25 0
4.5 0.25 0
4 0.25 0
4.125 0.25 0
4 0.375 0
4.125 0.375 0
4.125 0.25 0
4.25 0.25 0
4.125 0.375 0
4.25 0.375 0
4 0.375 0
4.125 0.375 0
4 0.5 0
4.125 0.5 0
4.125 0.375 0
4.25 0.375 0
4.125 0.5 0
4.25 0.5 0
4.25 0.25 0
4.375 0.25 0
4.25 0.375 0
4.375 0.375 0
4.375 0.25 0
4.5 0.25 0
4.375 0.375 0
4.5 0.375 0
4.25 0.375 0
4.375 0.375 0
4.25 0.5 0
4.375 0.5 0
4.375 0.375 0
4.5 0.375 0
4.375 0.5 0
4.5 0.5 0
4.5 0 0
4.625 0 0
4.5 0.125 0
4.625 0.125 0
4.625 0 0
4.75 0 0
4.625 0.125 0
4.75 0.125 0
4.5 0.125 0
4.625 0.125 0
4.5 0.25 0
4.625 0.25 0
4.625 0.125 0
4.75 0.125 0
4.625 0.25 0
4.75 0.25 0
4.75 0 0
4.875 0 0
4.75 0.125 0
4.875 0.125 0
4.875 0 0
5 0 0
4.875 0.125 0
5 0.125 0
4.75 0.125 0
4.875 0.125 0
4.75 0.25 0
4.875 0.25 0
4.875 0.125 0
5 0.125 0
4.875 0.25 0
5 0.25 0
4.5 0.25 0
4.625 0.25 0
4.5 0.375 0
4.625 0.375 0
4.625 0.25 0
4.75 0.25 0
4.625 0.375 0
4.75 0.375 0
4.5 0.375 0
4.625 0.375 0
4.5 0.5 0
4.625 0.5 0
4.625 0.375 0
4.75 0.375 0
4.625 0.5 0
4.75 0.5 0
4.75 0.25 0
4.875 0.25 0
4.75 0.375 0
4.875 0.375 0
4.875 0.25 0
5 0.25 0
4.875 0.375 0
5 0.375 0
4.75 0.375 0
4.875 0.375 0
4.75 0.5 0
4.875 0.5 0
4.875 0.375 0
5 0.375 0
4.875 0.5 0
5 0.5 0
4 0.5 0
4.125 0.5 0
4 0.625 0
4.125 0.625 0
4.125 0.5 0
4.25 0.5 0
4.125 0.625 0
4.25 0.625 0
4 0.625 0
4.125 0.625 0
4 0.75 0
4.125 0.75 0
4.125 0.625 0
4.25 0.625 0
4.125 0.75 0
4.25 0.75 0
4.25 0.5 0
4.375 0.5 0
4.25 0.625 0
4.375 0.625 0
4.375 0.5 0
4.5 0.5 0
4.375 0.625 0
4.5 0.625 0
4.25 0.625 0
4.375 0.625 0
4.25 0.75 0
4.375 0.75 0
4.375 0.625 0
4.5 0.625 0
4.375 0.75 0
4.5 0.75 0
4 0.75 0
4.125 0.75 0
4 0.875 0
4.125 0.875 0
4.125 0.75 0
4.25 0.75 0
4.125 0.875 0
4.25 0.875 0
4 0.875 0
4.125 0.875 0
4 1 0
4.125 1 0
4.125 0.875 0
4.25 0.875 0
4.125 1 0
4.25 1 0
4.25 0.75 0
4.375 0.75 0
4.25 0.875 0
4.375 0.875 0
4.375 0.75 0
4.5 0.75 0
4.375 0.875 0
4.5 0.875 0
4.25 0.875 0
4.375 0.875 0
4.25 1 0
4.375 1 0
4.375 0.875 0
4.5 0.875 0
4.375 1 0
4.5 1 0
4.5 0.5 0
4.625 0.5 0
4.5 0.625 0
4.625 0.625 0
4.625 0.5 0
4.75 0.5 0
4.625 0.625 0
4.75 0.625 0
4.5 0.625 0
4.625 0.625 0
4.5 0.75 0
4.625 0.75 0
4.625 0.625 0
4.75 0.625 0
4.625 0.75 0
4.75 0.75 0
4.75 0.5 0
4.875 0.5 0
4.75 0.625 0
4.875 0.625 0
4.875 0.5 0
5 0.5 0
4.875 0.625 0
5 0.625 0
4.75 0.625 0
4.875 0.625 0
4.75 0.75 0
4.875 0.75 0
4.875 0.625 0
5 0.625 0
4.875 0.75 0
5 0.75 0
4.5 0.75 0
4.625 0.75 0
4.5 0.875 0
4.625 0.875 0
4.625 0.75 0
4.75 0.75 0
4.625 0.875 0
4.75 0.875 0
4.5 0.875 0
4.625 0.875 0
4.5 1 0
4.625 1 0
4.625 0.875 0
4.75 0.875 0
4.625 1 0
4.75 1 0
4.75 0.75 0
4.875 0.75 0
4.75 0.875 0
4.875 0.875 0
4.875 0.75 0
5 0.75 0
4.875 0.875 0
5 0.875 0
4.75 0.875 0
4.875 0.875 0
4.75 1 0
4.875 1 0
4.875 0.875 0
5 0.875 0
4.875 1 0
5 1 0
3 0 0
3.125 0 0
3 0.125 0
3.125 0.125 0
3.125 0 0
3.25 0 0
3.125 0.125 0
3.25 0.125 0
3 0.125 0
3.125 0.125 0
3 0.25 0
3.125 0.25 0
3.125 0.125 0
3.25 0.125 0
3.125 0.25 0
3.25 0.25 0
3.25 0 0
3.375 0 0
3.25 0.125 0
3.375 0.125 0
3.375 0 0
3.5 0 0
3.375 0.125 0
3.5 0.125 0
3.25 0.125 0
3.375 0.125 0
3.25 0.25 0
3.375 0.25 0
3.375 0.125 0
3.5 0.125 0
3.375 0.25 0
3.5 0.25 0
3 0.25 0
3.125 0.25 0
3 0.375 0
3.125 0.375 0
3.125 0.25 0
3.25 0.25 0
3.125 0.375 0
3.25 0.375 0
3 0.375 0
3.125 0.375 0
3 0.5 0
3.125 0.5 0
3.125 0.375 0
3.25 0.375 0
3.125 0.5 0
3.25 0.5 0
3.25 0.25 0
3.375 0.25 0
3.25 0.375 0
3.375 0.375 0
3.375 0.25 0
3.5 0.25 0
3.375 0.375 0
3.5 0.375 0
3.25 0.375 0
3.375 0.375 0
3.25 0.5 0
3.375 0.5 0
3.375 0.375 0
3.5 0.375 0
3.375 0.5 0
3.5 0.5 0
3.5 0 0
3.625 0 0
3.5 0.125 0
3.625 0.125 0
3.625 0 0
3.75 0 0
3.625 0.125 0
3.75 0.125 0
3.5 0.125 0
3.625 0.125 0
3.5 0.25 0
3.625 0.25 0
3.625 0.125 0
3.75 0.125 0
3.625 0.25 0
3.75 0.25 0
3.75 0 0
3.875 0 0
3.75 0.125 0
3.875 0.125 0
3.875 0 0
4 0 0
3.875 0.125 0
4 0.125 0
3.75 0.125 0
3.875 0.125 0
3.75 0.25 0
3.875 0.25 0
3.875 0.125 0
4 0.125 0
3.875 0.25 0
4 0.25 0
3.5 0.25 0
3.625 0.25 0
3.5 0.375 0
3.625 0.375 0
3.625 0.25 0
3.75 0.25 0
3.625 0.375 0
3.75 0.375 0
3.5 0.375 0
3.625 0.375 0
3.5 0.5 0
3.625 0.5 0
3.625 0.375 0
3.75 0.375 0
3.625 0.5 0
3.75 0.5 0
3.75 0.25 0
3.875 0.25 0
3.75 0.375 0
3.875 0.375 0
3.875 0.25 0
4 0.25 0
3.875 0.375 0
4 0.375 0
3.75 0.375 0
3.875 0.375 0
3.75 0.5 0
3.875 0.5 0
3.875 0.375 0
4 0.375 0
3.875 0.5 0
4 0.5 0
3 0.5 0
3.125 0.5 0
3 0.625 0
3.125 0.625 0
3.125 0.5 0
3.25 0.5 0
3.125 0.625 0
3.25 0.625 0
3 0.625 0
3.125 0.625 0
3 0.75 0
3.125 0.75 0
3.125 0.625 0
3.25 0.625 0
3.125 0.75 0
3.25 0.75 0
3.25 0.5 0
3.375 0.5 0
3.25 0.625 0
3.375 0.625 0
3.375 0.5 0
3.5 0.5 0
3.375 0.625 0
3.5 0.625 0
3.25 0.625 0
3.375 0.625 0
3.25 0.75 0
3.375 0.75 0
3.375 0.625 0
3.5 0.625 0
3.375 0.75 0
3.5 0.75 0
3 0.75 0
3.125 0.75 0
3 0.875 0
3.125 0.875 0
3.125 0.75 0
3.25 0.75 0
3.125 0.875 0
3.25 0.875 0
3 0.875 0
3.125 0.875 0
3 1 0
3.125 1 0
3.125 0.875 0
3.25 0.875 0
3.125 1 0
3.25 1 0
3.25 0.75 0
3.375 0.75 0
3.25 0.875 0
3.375 0.875 0
3.375 0.75 0
3.5 0.75 0
3.375 0.875 0
3.5 0.875 0
3.25 0.875 0
3.375 0.875 0
3.25 1 0
3.375 1 0
3.375 0.875 0
3.5 0.875 0
3.375 1 0
3.5 1 0
3.5 0.5 0
3.625 0.5 0
3.5 0.625 0
3.625 0.625 0
3.625 0.5 0
3.75 0.5 0
3.625 0.625 0
3.75 0.625 0
3.5 0.625 0
3.625 0.625 0
3.5 0.75 0
3.625 0.75 0
3.625 0.625 0
3.75 0.625 0
3.625 0.75 0
3.75 0.75 0
3.75 0.5 0
3.875 0.5 0
3.75 0.625 0
3.875 0.625 0
3.875 0.5 0
4 0.5 0
3.875 0.625 0
4 0.625 0
3.75 0.625 0
3.875 0.625 0
3.75 0.75 0
3.875 0.75 0
3.875 0.625 0
4 0.625 0
3.875 0.75 0
4 0.75 0
3.5 0.75 0
3.625 0.75 0
3.5 0.875 0
3.625 0.875 0
3.625 0.75 0
3.75 0.75 0
3.625 0.875 0
3.75 0.875 0
3.5 0.875 0
3.625 0.875 0
3.5 1 0
3.625 1 0
3.625 0.875 0
3.75 0.875 0
3.625 1 0
3.75 1 0
3.75 0.75 0
3.875 0.75 0
3.75 0.875 0
3.875 0.875 0
3.875 0.75 0
4 0.75 0
3.875 0.875 0
4 0.875 0
3.75 0.875 0
3.875 0.875 0
3.75 1 0
3.875 1 0
3.875 0.875 0
4 0.875 0
3.875 1 0
4 1 0
2 0 0
2.125 0 0
2 0.125 0
2.125 0.125 0
2.125 0 0
2.25 0 0
2.125 0.125 0
2.25 0.125 0
2 0.125 0
2.125 0.125 0
2 0.25 0
2.125 0.25 0
2.125 0.125 0
2.25 0.125 0
2.125 0.25 0
2.25 0.25 0
2.25 0 0
2.375 0 0
2.25 0.125 0
2.375 0.125 0
2.375 0 0
2.5 0 0
2.375 0.125 0
2.5 0.125 0
2.25 0.125 0
2.375 0.125 0
2.25 0.25 0
2.375 0.25 0
2.375 0.125 0
2.5 0.125 0
2.375 0.25 0
2.5 0.25 0
2 0.25 0
2.125 0.25 0
2 0.375 0
2.125 0.375 0
2.125 0.25 0
2.25 0.25 0
2.125 0.375 0
2.25 0.375 0
2 0.375 0
2.125 0.375 0
2 0.5 0
2.125 0.5 0
2.125 0.375 0
2.25 0.375 0
2.125 0.5 0
2.25 0.5 0
2.25 0.25 0
2.375 0.25 0
2.25 0.375 0
2.375 0.375 0
2.375 0.25 0
[...]
POINT_DATA 1536
VECTORS displacements double
30.587 -34.426 0
31.1116 -30.7844 0
27.0868 -34.5843 0
27.4793 -30.9294 0
31.1116 -30.7844 0
31.5946 -27.0201 0
27.4793 -30.9294 0
27.8374 -27.1518 0
27.0868 -34.5843 0
27.4793 -30.9294 0
23.7235 -34.693 0
23.9788 -31.0259 0
27.4793 -30.9294 0
27.8374 -27.1518 0
23.9788 -31.0259 0
24.2046 -27.2344 0
31.5946 -27.0201 0
32.0405 -23.1425 0
27.8374 -27.1518 0
28.16 -23.2614 0
32.0405 -23.1425 0
32.4597 -19.1548 0
28.16 -23.2614 0
28.4454 -19.2628 0
27.8374 -27.1518 0
28.16 -23.2614 0
24.2046 -27.2344 0
24.3954 -23.3278 0
28.16 -23.2614 0
28.4454 -19.2628 0
24.3954 -23.3278 0
24.5423 -19.3094 0
23.7235 -34.693 0
23.9788 -31.0259 0
20.449 -34.7512 0
20.5683 -31.0728 0
23.9788 -31.0259 0
24.2046 -27.2344 0
20.5683 -31.0728 0
20.6659 -27.2674 0
20.449 -34.7512 0
20.5683 -31.0728 0
17.2191 -34.7615 0
17.2061 -31.0747 0
20.5683 -31.0728 0
20.6659 -27.2674 0
17.2061 -31.0747 0
17.1838 -27.2591 0
24.2046 -27.2344 0
24.3954 -23.3278 0
20.6659 -27.2674 0
20.7358 -23.3446 0
24.3954 -23.3278 0
24.5423 -19.3094 0
20.7358 -23.3446 0
20.7704 -19.3101 0
20.6659 -27.2674 0
20.7358 -23.3446 0
17.1838 -27.2591 0
17.1482 -23.3264 0
20.7358 -23.3446 0
20.7704 -19.3101 0
17.1482 -23.3264 0
17.0976 -19.2887 0
32.4597 -19.1548 0
32.8736 -15.0482 0
28.4454 -19.2628 0
28.6868 -15.1428 0
32.8736 -15.0482 0
33.328 -10.7523 0
28.6868 -15.1428 0
28.8597 -10.8602 0
28.4454 -19.2628 0
28.6868 -15.1428 0
24.5423 -19.3094 0
24.6309 -15.169 0
28.6868 -15.1428 0
28.8597 -10.8602 0
24.6309 -15.169 0
24.6388 -10.8564 0
33.328 -10.7523 0
33.8795 -6.18684 0
28.8597 -10.8602 0
28.8598 -6.15396 0
33.8795 -6.18684 0
34.2889 0 0
28.8598 -6.15396 0
28.9875 -1.18894 0
28.8597 -10.8602 0
28.8598 -6.15396 0
24.6388 -10.8564 0
24.6294 -6.34529 0
28.8598 -6.15396 0
28.9875 -1.18894 0
24.6294 -6.34529 0
24.7572 -2.00854 0
24.5423 -19.3094 0
24.6309 -15.169 0
20.7704 -19.3101 0
20.7639 -15.1624 0
24.6309 -15.169 0
24.6388 -10.8564 0
20.7639 -15.1624 0
20.7337 -10.9047 0
20.7704 -19.3101 0
20.7639 -15.1624 0
17.0976 -19.2887 0
17.0391 -15.1629 0
20.7639 -15.1624 0
20.7337 -10.9047 0
17.0391 -15.1629 0
16.9978 -10.9888 0
24.6388 -10.8564 0
24.6294 -6.34529 0
20.7337 -10.9047 0
20.7466 -6.62106 0
24.6294 -6.34529 0
24.7572 -2.00854 0
20.7466 -6.62106 0
20.852 -2.5677 0
20.7337 -10.9047 0
20.7466 -6.62106 0
16.9978 -10.9888 0
17.0097 -6.86032 0
20.7466 -6.62106 0
20.852 -2.5677 0
17.0097 -6.86032 0
17.0833 -2.94497 0
17.2191 -34.7615 0
17.2061 -31.0747 0
13.9931 -34.728 0
13.8529 -31.0378 0
17.2061 -31.0747 0
17.1838 -27.2591 0
13.8529 -31.0378 0
13.7194 -27.2186 0
13.9931 -34.728 0
13.8529 -31.0378 0
10.7302 -34.6534 0
10.4675 -30.9664 0
13.8529 -31.0378 0
13.7194 -27.2186 0
10.4675 -30.9664 0
10.2298 -27.1516 0
17.1838 -27.2591 0
17.1482 -23.3264 0
13.7194 -27.2186 0
13.5925 -23.2854 0
17.1482 -23.3264 0
17.0976 -19.2887 0
13.5925 -23.2854 0
13.4758 -19.2583 0
13.7194 -27.2186 0
13.5925 -23.2854 0
10.2298 -27.1516 0
10.0205 -23.227 0
13.5925 -23.2854 0
13.4758 -19.2583 0
10.0205 -23.227 0
9.84578 -19.2182 0
10.7302 -34.6534 0
10.4675 -30.9664 0
7.38101 -34.5386 0
6.99825 -30.8616 0
10.4675 -30.9664 0
10.2298 -27.1516 0
6.99825 -30.8616 0
6.65898 -27.0588 0
7.38101 -34.5386 0
6.99825 -30.8616 0
3.87851 -34.382 0
3.37173 -30.7212 0
6.99825 -30.8616 0
6.65898 -27.0588 0
3.37173 -30.7212 0
2.92698 -26.9373 0
10.2298 -27.1516 0
10.0205 -23.227 0
6.65898 -27.0588 0
6.3699 -23.1499 0
10.0205 -23.227 0
9.84578 -19.2182 0
6.3699 -23.1499 0
6.13879 -19.1629 0
6.65898 -27.0588 0
6.3699 -23.1499 0
2.92698 -26.9373 0
2.55548 -23.0511 0
6.3699 -23.1499 0
6.13879 -19.1629 0
2.55548 -23.0511 0
2.27005 -19.0909 0
17.0976 -19.2887 0
17.0391 -15.1629 0
13.4758 -19.2583 0
13.3802 -15.1682 0
17.0391 -15.1629 0
16.9978 -10.9888 0
13.3802 -15.1682 0
13.3237 -11.0659 0
13.4758 -19.2583 0
13.3802 -15.1682 0
9.84578 -19.2182 0
9.71416 -15.163 0
13.3802 -15.1682 0
13.3237 -11.0659 0
9.71416 -15.163 0
9.63464 -11.1129 0
16.9978 -10.9888 0
17.0097 -6.86032 0
13.3237 -11.0659 0
13.3208 -7.03049 0
17.0097 -6.86032 0
17.0833 -2.94497 0
13.3208 -7.03049 0
13.3608 -3.17212 0
13.3237 -11.0659 0
13.3208 -7.03049 0
9.63464 -11.1129 0
9.60996 -7.12992 0
13.3208 -7.03049 0
13.3608 -3.17212 0
9.60996 -7.12992 0
9.62072 -3.27724 0
9.84578 -19.2182 0
9.71416 -15.163 0
6.13879 -19.1629 0
5.97218 -15.1372 0
9.71416 -15.163 0
9.63464 -11.1129 0
5.97218 -15.1372 0
5.8713 -11.1231 0
6.13879 -19.1629 0
5.97218 -15.1372 0
2.27005 -19.0909 0
2.08092 -15.0952 0
5.97218 -15.1372 0
5.8713 -11.1231 0
2.08092 -15.0952 0
1.9865 -11.1102 0
9.63464 -11.1129 0
9.60996 -7.12992 0
5.8713 -11.1231 0
5.82831 -7.17113 0
9.60996 -7.12992 0
9.62072 -3.27724 0
5.82831 -7.17113 0
5.82084 -3.30299 0
5.8713 -11.1231 0
5.82831 -7.17113 0
1.9865 -11.1102 0
1.96227 -7.17822 0
5.82831 -7.17113 0
5.82084 -3.30299 0
1.96227 -7.17822 0
1.9624 -3.30294 0
24.952 -57.8211 0
25.7848 -55.5493 0
22.8586 -58.0681 0
23.4812 -55.7865 0
25.7848 -55.5493 0
26.5829 -53.0719 0
23.4812 -55.7865 0
24.0791 -53.2992 0
22.8586 -58.0681 0
23.4812 -55.7865 0
20.9115 -58.2416 0
21.3232 -55.9538 0
23.4812 -55.7865 0
24.0791 -53.2992 0
21.3232 -55.9538 0
21.7202 -53.4599 0
26.5829 -53.0719 0
27.3457 -50.3984 0
24.0791 -53.2992 0
24.6513 -50.6154 0
27.3457 -50.3984 0
28.0721 -47.5381 0
24.6513 -50.6154 0
25.1968 -47.7444 0
24.0791 -53.2992 0
24.6513 -50.6154 0
21.7202 -53.4599 0
22.1014 -50.7692 0
24.6513 -50.6154 0
25.1968 -47.7444 0
22.1014 -50.7692 0
22.4655 -47.8908 0
20.9115 -58.2416 0
21.3232 -55.9538 0
19.063 -58.3412 0
19.2632 -56.0503 0
21.3232 -55.9538 0
21.7202 -53.4599 0
19.2632 -56.0503 0
19.458 -53.5534 0
19.063 -58.3412 0
19.2632 -56.0503 0
17.2569 -58.368 0
17.2469 -56.077 0
19.2632 -56.0503 0
19.458 -53.5534 0
17.2469 -56.077 0
17.2401 -53.5804 0
21.7202 -53.4599 0
22.1014 -50.7692 0
19.458 -53.5534 0
19.6465 -50.8593 0
22.1014 -50.7692 0
22.4655 -47.8908 0
19.6465 -50.8593 0
19.8276 -47.9768 0
19.458 -53.5534 0
19.6465 -50.8593 0
17.2401 -53.5804 0
17.2359 -50.8861 0
19.6465 -50.8593 0
19.8276 -47.9768 0
17.2359 -50.8861 0
17.2334 -48.0027 0
28.0721 -47.5381 0
28.761 -44.5005 0
25.1968 -47.7444 0
25.7145 -44.6956 0
28.761 -44.5005 0
29.4108 -41.2954 0
25.7145 -44.6956 0
26.203 -41.4788 0
25.1968 -47.7444 0
25.7145 -44.6956 0
22.4655 -47.8908 0
22.8114 -44.8339 0
25.7145 -44.6956 0
26.203 -41.4788 0
22.8114 -44.8339 0
23.1375 -41.6083 0
29.4108 -41.2954 0
30.0199 -37.9336 0
26.203 -41.4788 0
26.6609 -38.1047 0
30.0199 -37.9336 0
30.587 -34.426 0
26.6609 -38.1047 0
27.0868 -34.5843 0
26.203 -41.4788 0
26.6609 -38.1047 0
23.1375 -41.6083 0
23.4422 -38.2243 0
26.6609 -38.1047 0
27.0868 -34.5843 0
23.4422 -38.2243 0
23.7235 -34.693 0
22.4655 -47.8908 0
22.8114 -44.8339 0
19.8276 -47.9768 0
19.9999 -44.9148 0
22.8114 -44.8339 0
23.1375 -41.6083 0
19.9999 -44.9148 0
20.1621 -41.6831 0
19.8276 -47.9768 0
19.9999 -44.9148 0
17.2334 -48.0027 0
17.2316 -44.939 0
19.9999 -44.9148 0
20.1621 -41.6831 0
17.2316 -44.939 0
17.2296 -41.7043 0
23.1375 -41.6083 0
23.4422 -38.2243 0
20.1621 -41.6831 0
20.3126 -38.2917 0
23.4422 -38.2243 0
23.7235 -34.693 0
20.3126 -38.2917 0
20.449 -34.7512 0
20.1621 -41.6831 0
20.3126 -38.2917 0
17.2296 -41.7043 0
17.2261 -38.3084 0
20.3126 -38.2917 0
20.449 -34.7512 0
17.2261 -38.3084 0
17.2191 -34.7615 0
17.2569 -58.368 0
17.2469 -56.077 0
15.4411 -58.3241 0
15.224 -56.0358 0
17.2469 -56.077 0
17.2401 -53.5804 0
15.224 -56.0358 0
15.018 -53.5423 0
15.4411 -58.3241 0
15.224 -56.0358 0
13.5678 -58.2119 0
13.1479 -55.9289 0
15.224 -56.0358 0
15.018 -53.5423 0
13.1479 -55.9289 0
12.7459 -53.4409 0
17.2401 -53.5804 0
17.2359 -50.8861 0
15.018 -53.5423 0
14.8227 -50.8509 0
17.2359 -50.8861 0
17.2334 -48.0027 0
14.8227 -50.8509 0
14.6376 -47.9698 0
15.018 -53.5423 0
14.8227 -50.8509 0
12.7459 -53.4409 0
12.3619 -50.7549 0
14.8227 -50.8509 0
14.6376 -47.9698 0
12.3619 -50.7549 0
11.9963 -47.879 0
13.5678 -58.2119 0
13.1479 -55.9289 0
11.5942 -58.0334 0
10.9742 -55.7576 0
13.1479 -55.9289 0
12.7459 -53.4409 0
10.9742 -55.7576 0
10.3782 -53.277 0
11.5942 -58.0334 0
10.9742 -55.7576 0
9.49204 -57.7881 0
8.66836 -55.5211 0
10.9742 -55.7576 0
10.3782 -53.277 0
8.66836 -55.5211 0
7.87478 -53.0499 0
12.7459 -53.4409 0
12.3619 -50.7549 0
10.3782 -53.277 0
9.80711 -50.5988 0
12.3619 -50.7549 0
11.9963 -47.879 0
9.80711 -50.5988 0
9.26233 -47.7307 0
10.3782 -53.277 0
9.80711 -50.5988 0
7.87478 -53.0499 0
7.11351 -50.3816 0
9.80711 -50.5988 0
9.26233 -47.7307 0
7.11351 -50.3816 0
6.38676 -47.524 0
17.2334 -48.0027 0
17.2316 -44.939 0
14.6376 -47.9698 0
14.4626 -44.9077 0
17.2316 -44.939 0
17.2296 -41.7043 0
14.4626 -44.9077 0
14.2971 -41.6735 0
14.6376 -47.9698 0
14.4626 -44.9077 0
11.9963 -47.879 0
11.6496 -44.8217 0
14.4626 -44.9077 0
14.2971 -41.6735 0
11.6496 -44.8217 0
11.3224 -41.5918 0
17.2296 -41.7043 0
17.2261 -38.3084 0
14.2971 -41.6735 0
14.1408 -38.2769 0
17.2261 -38.3084 0
17.2191 -34.7615 0
14.1408 -38.2769 0
13.9931 -34.728 0
14.2971 -41.6735 0
14.1408 -38.2769 0
11.3224 -41.5918 0
11.0156 -38.199 0
14.1408 -38.2769 0
13.9931 -34.728 0
11.0156 -38.199 0
10.7302 -34.6534 0
11.9963 -47.879 0
11.6496 -44.8217 0
9.26233 -47.7307 0
8.74532 -44.6813 0
11.6496 -44.8217 0
11.3224 -41.5918 0
8.74532 -44.6813 0
8.25785 -41.4596 0
9.26233 -47.7307 0
8.74532 -44.6813 0
6.38676 -47.524 0
5.69683 -44.4857 0
8.74532 -44.6813 0
8.25785 -41.4596 0
5.69683 -44.4857 0
5.0464 -41.2759 0
11.3224 -41.5918 0
11.0156 -38.199 0
8.25785 -41.4596 0
7.80213 -38.0753 0
11.0156 -38.199 0
10.7302 -34.6534 0
7.80213 -38.0753 0
7.38101 -34.5386 0
8.25785 -41.4596 0
7.80213 -38.0753 0
5.0464 -41.2759 0
4.4388 -37.9044 0
7.80213 -38.0753 0
7.38101 -34.5386 0
4.4388 -37.9044 0
3.87851 -34.382 0
17.1444 -67.1028 0
18.2027 -66.9439 0
17.1444 -67.4109 0
17.9075 -67.2502 0
18.2027 -66.9439 0
19.2502 -66.4711 0
17.9075 -67.2502 0
18.6645 -66.7724 0
17.1444 -67.4109 0
17.9075 -67.2502 0
17.1444 -67.6481 0
17.6557 -67.4843 0
17.9075 -67.2502 0
18.6645 -66.7724 0
17.6557 -67.4843 0
18.16 -66.9983 0
19.2502 -66.4711 0
20.2776 -65.6951 0
18.6645 -66.7724 0
19.4101 -65.9891 0
20.2776 -65.6951 0
21.2781 -64.6311 0
19.4101 -65.9891 0
20.1402 -64.9164 0
18.6645 -66.7724 0
19.4101 -65.9891 0
18.16 -66.9983 0
18.6524 -66.2043 0
19.4101 -65.9891 0
20.1402 -64.9164 0
18.6524 -66.2043 0
19.131 -65.1208 0
17.1444 -67.6481 0
17.6557 -67.4843 0
17.1444 -67.8494 0
17.4334 -67.6782 0
17.6557 -67.4843 0
18.16 -66.9983 0
17.4334 -67.6782 0
17.71 -67.1736 0
17.1444 -67.8494 0
17.4334 -67.6782 0
17.1444 -68.0355 0
17.2255 -67.8495 0
17.4334 -67.6782 0
17.71 -67.1736 0
17.2255 -67.8495 0
17.2845 -67.309 0
18.16 -66.9983 0
18.6524 -66.2043 0
17.71 -67.1736 0
17.9677 -66.3572 0
18.6524 -66.2043 0
19.131 -65.1208 0
17.9677 -66.3572 0
18.2071 -65.2539 0
17.71 -67.1736 0
17.9677 -66.3572 0
17.2845 -67.309 0
17.3128 -66.453 0
17.9677 -66.3572 0
18.2071 -65.2539 0
17.3128 -66.453 0
17.3159 -65.3182 0
21.2781 -64.6311 0
22.2473 -63.2961 0
20.1402 -64.9164 0
20.8518 -63.572 0
22.2473 -63.2961 0
23.1831 -61.7066 0
20.8518 -63.572 0
21.5429 -61.9729 0
20.1402 -64.9164 0
20.8518 -63.572 0
19.131 -65.1208 0
19.5958 -63.7669 0
20.8518 -63.572 0
21.5429 -61.9729 0
19.5958 -63.7669 0
20.0473 -62.1597 0
23.1831 -61.7066 0
24.0848 -59.8773 0
21.5429 -61.9729 0
22.2122 -60.1339 0
24.0848 -59.8773 0
24.952 -57.8211 0
22.2122 -60.1339 0
22.8586 -58.0681 0
21.5429 -61.9729 0
22.2122 -60.1339 0
20.0473 -62.1597 0
20.486 -60.3139 0
22.2122 -60.1339 0
22.8586 -58.0681 0
20.486 -60.3139 0
20.9115 -58.2416 0
19.131 -65.1208 0
19.5958 -63.7669 0
18.2071 -65.2539 0
18.4324 -63.8856 0
19.5958 -63.7669 0
20.0473 -62.1597 0
18.4324 -63.8856 0
18.6484 -62.269 0
18.2071 -65.2539 0
18.4324 -63.8856 0
17.3159 -65.3182 0
17.3042 -63.9296 0
18.4324 -63.8856 0
18.6484 -62.269 0
17.3042 -63.9296 0
17.2872 -62.3021 0
20.0473 -62.1597 0
20.486 -60.3139 0
18.6484 -62.269 0
18.8581 -60.4173 0
20.486 -60.3139 0
20.9115 -58.2416 0
18.8581 -60.4173 0
19.063 -58.3412 0
18.6484 -62.269 0
18.8581 -60.4173 0
17.2872 -62.3021 0
17.2706 -60.4456 0
18.8581 -60.4173 0
19.063 -58.3412 0
17.2706 -60.4456 0
17.2569 -58.368 0
17.1444 -68.0355 0
17.2255 -67.8495 0
17.1444 -68.2147 0
17.0179 -68.0003 0
17.2255 -67.8495 0
17.2845 -67.309 0
17.0179 -68.0003 0
16.8538 -67.3979 0
17.1444 -68.2147 0
17.0179 -68.0003 0
17.1444 -68.3853 0
16.7911 -68.1188 0
17.0179 -68.0003 0
16.8538 -67.3979 0
16.7911 -68.1188 0
16.385 -67.4146 0
17.2845 -67.309 0
17.3128 -66.453 0
16.8538 -67.3979 0
16.6452 -66.4822 0
17.3128 -66.453 0
17.3159 -65.3182 0
16.6452 -66.4822 0
16.4061 -65.3065 0
16.8538 -67.3979 0
16.6452 -66.4822 0
16.385 -67.4146 0
15.915 -66.4188 0
16.6452 -66.4822 0
16.4061 -65.3065 0
15.915 -66.4188 0
15.4207 -65.205 0
17.1444 -68.3853 0
16.7911 -68.1188 0
17.1444 -68.5511 0
16.5342 -68.1681 0
16.7911 -68.1188 0
16.385 -67.4146 0
16.5342 -68.1681 0
15.8059 -67.2929 0
17.1444 -68.5511 0
16.5342 -68.1681 0
17.1444 -68.6107 0
15.9846 -68.0531 0
16.5342 -68.1681 0
15.8059 -67.2929 0
15.9846 -68.0531 0
14.9395 -67.0037 0
16.385 -67.4146 0
15.915 -66.4188 0
15.8059 -67.2929 0
15.0384 -66.2346 0
15.915 -66.4188 0
15.4207 -65.205 0
15.0384 -66.2346 0
14.3013 -65.0105 0
15.8059 -67.2929 0
15.0384 -66.2346 0
14.9395 -67.0037 0
13.976 -65.9571 0
15.0384 -66.2346 0
14.3013 -65.0105 0
13.976 -65.9571 0
13.0382 -64.7357 0
17.3159 -65.3182 0
17.3042 -63.9296 0
16.4061 -65.3065 0
16.1559 -63.8959 0
17.3042 -63.9296 0
17.2872 -62.3021 0
16.1559 -63.8959 0
15.9084 -62.2592 0
16.4061 -65.3065 0
16.1559 -63.8959 0
15.4207 -65.205 0
14.9334 -63.7808 0
16.1559 -63.8959 0
15.9084 -62.2592 0
14.9334 -63.7808 0
14.4609 -62.1408 0
17.2872 -62.3021 0
17.2706 -60.4456 0
15.9084 -62.2592 0
15.6694 -60.4004 0
17.2706 -60.4456 0
17.2569 -58.368 0
15.6694 -60.4004 0
15.4411 -58.3241 0
15.9084 -62.2592 0
15.6694 -60.4004 0
14.4609 -62.1408 0
14.0055 -60.2839 0
15.6694 -60.4004 0
15.4411 -58.3241 0
14.0055 -60.2839 0
13.5678 -58.2119 0
15.4207 -65.205 0
14.9334 -63.7808 0
14.3013 -65.0105 0
13.5903 -63.5857 0
14.9334 -63.7808 0
14.4609 -62.1408 0
13.5903 -63.5857 0
12.9026 -61.9497 0
14.3013 -65.0105 0
13.5903 -63.5857 0
13.0382 -64.7357 0
12.119 -63.3176 0
13.5903 -63.5857 0
12.9026 -61.9497 0
12.119 -63.3176 0
11.22 -61.6885 0
14.4609 -62.1408 0
14.0055 -60.2839 0
12.9026 -61.9497 0
12.2372 -60.0987 0
14.0055 -60.2839 0
13.5678 -58.2119 0
12.2372 -60.0987 0
11.5942 -58.0334 0
12.9026 -61.9497 0
12.2372 -60.0987 0
11.22 -61.6885 0
10.3434 -59.8451 0
12.2372 -60.0987 0
11.5942 -58.0334 0
10.3434 -59.8451 0
9.49204 -57.7881 0
9.33687 -57.8211 0
10.2041 -59.8773 0
11.4303 -58.0681 0
12.0767 -60.1339 0
10.2041 -59.8773 0
11.1057 -61.7066 0
12.0767 -60.1339 0
12.746 -61.9729 0
11.4303 -58.0681 0
12.0767 -60.1339 0
13.3774 -58.2416 0
13.8029 -60.3139 0
12.0767 -60.1339 0
12.746 -61.9729 0
13.8029 -60.3139 0
14.2415 -62.1597 0
11.1057 -61.7066 0
12.0416 -63.2961 0
12.746 -61.9729 0
13.4371 -63.572 0
12.0416 -63.2961 0
13.0108 -64.6311 0
13.4371 -63.572 0
14.1487 -64.9164 0
12.746 -61.9729 0
13.4371 -63.572 0
14.2415 -62.1597 0
14.6931 -63.7669 0
13.4371 -63.572 0
14.1487 -64.9164 0
14.6931 -63.7669 0
15.1578 -65.1208 0
13.3774 -58.2416 0
13.8029 -60.3139 0
15.2259 -58.3412 0
15.4308 -60.4173 0
13.8029 -60.3139 0
14.2415 -62.1597 0
15.4308 -60.4173 0
15.6405 -62.269 0
15.2259 -58.3412 0
15.4308 -60.4173 0
17.032 -58.368 0
17.0183 -60.4456 0
15.4308 -60.4173 0
15.6405 -62.269 0
17.0183 -60.4456 0
17.0017 -62.3021 0
14.2415 -62.1597 0
14.6931 -63.7669 0
15.6405 -62.269 0
15.8565 -63.8856 0
14.6931 -63.7669 0
15.1578 -65.1208 0
15.8565 -63.8856 0
16.0818 -65.2539 0
15.6405 -62.269 0
15.8565 -63.8856 0
17.0017 -62.3021 0
16.9847 -63.9296 0
15.8565 -63.8856 0
16.0818 -65.2539 0
16.9847 -63.9296 0
16.973 -65.3182 0
13.0108 -64.6311 0
14.0113 -65.6951 0
14.1487 -64.9164 0
14.8787 -65.9891 0
14.0113 -65.6951 0
15.0387 -66.4711 0
14.8787 -65.9891 0
15.6243 -66.7724 0
14.1487 -64.9164 0
14.8787 -65.9891 0
15.1578 -65.1208 0
15.6364 -66.2043 0
14.8787 -65.9891 0
15.6243 -66.7724 0
15.6364 -66.2043 0
16.1289 -66.9983 0
15.0387 -66.4711 0
16.0862 -66.9439 0
15.6243 -66.7724 0
16.3813 -67.2502 0
16.0862 -66.9439 0
17.1444 -67.1028 0
16.3813 -67.2502 0
17.1444 -67.4109 0
15.6243 -66.7724 0
16.3813 -67.2502 0
16.1289 -66.9983 0
16.6331 -67.4843 0
16.3813 -67.2502 0
17.1444 -67.4109 0
16.6331 -67.4843 0
17.1444 -67.6481 0
15.1578 -65.1208 0
15.6364 -66.2043 0
16.0818 -65.2539 0
16.3211 -66.3572 0
15.6364 -66.2043 0
16.1289 -66.9983 0
16.3211 -66.3572 0
16.5789 -67.1736 0
16.0818 -65.2539 0
16.3211 -66.3572 0
16.973 -65.3182 0
16.9761 -66.453 0
16.3211 -66.3572 0
16.5789 -67.1736 0
16.9761 -66.453 0
17.0044 -67.309 0
16.1289 -66.9983 0
16.6331 -67.4843 0
16.5789 -67.1736 0
16.8555 -67.6782 0
16.6331 -67.4843 0
17.1444 -67.6481 0
16.8555 -67.6782 0
17.1444 -67.8494 0
16.5789 -67.1736 0
16.8555 -67.6782 0
17.0044 -67.309 0
17.0634 -67.8495 0
16.8555 -67.6782 0
17.1444 -67.8494 0
17.0634 -67.8495 0
17.1444 -68.0355 0
17.032 -58.368 0
17.0183 -60.4456 0
18.8478 -58.3241 0
18.6194 -60.4004 0
17.0183 -60.4456 0
17.0017 -62.3021 0
18.6194 -60.4004 0
18.3804 -62.2592 0
18.8478 -58.3241 0
18.6194 -60.4004 0
20.7211 -58.2119 0
20.2833 -60.2839 0
18.6194 -60.4004 0
18.3804 -62.2592 0
20.2833 -60.2839 0
19.8279 -62.1408 0
17.0017 -62.3021 0
16.9847 -63.9296 0
18.3804 -62.2592 0
18.1329 -63.8959 0
16.9847 -63.9296 0
16.973 -65.3182 0
18.1329 -63.8959 0
17.8828 -65.3065 0
18.3804 -62.2592 0
18.1329 -63.8959 0
19.8279 -62.1408 0
19.3555 -63.7808 0
18.1329 -63.8959 0
17.8828 -65.3065 0
19.3555 -63.7808 0
18.8682 -65.205 0
20.7211 -58.2119 0
20.2833 -60.2839 0
22.6947 -58.0334 0
22.0517 -60.0987 0
20.2833 -60.2839 0
19.8279 -62.1408 0
22.0517 -60.0987 0
21.3863 -61.9497 0
22.6947 -58.0334 0
22.0517 -60.0987 0
24.7968 -57.7881 0
23.9454 -59.8451 0
22.0517 -60.0987 0
21.3863 -61.9497 0
23.9454 -59.8451 0
23.0689 -61.6885 0
19.8279 -62.1408 0
19.3555 -63.7808 0
21.3863 -61.9497 0
20.6985 -63.5857 0
19.3555 -63.7808 0
18.8682 -65.205 0
20.6985 -63.5857 0
19.9875 -65.0105 0
21.3863 -61.9497 0
20.6985 -63.5857 0
23.0689 -61.6885 0
22.1698 -63.3176 0
20.6985 -63.5857 0
19.9875 -65.0105 0
22.1698 -63.3176 0
21.2507 -64.7357 0
16.973 -65.3182 0
16.9761 -66.453 0
17.8828 -65.3065 0
17.6437 -66.4822 0
16.9761 -66.453 0
17.0044 -67.309 0
17.6437 -66.4822 0
17.4351 -67.3979 0
17.8828 -65.3065 0
17.6437 -66.4822 0
18.8682 -65.205 0
18.3738 -66.4188 0
17.6437 -66.4822 0
17.4351 -67.3979 0
18.3738 -66.4188 0
17.9038 -67.4146 0
17.0044 -67.309 0
17.0634 -67.8495 0
17.4351 -67.3979 0
17.2709 -68.0003 0
17.0634 -67.8495 0
17.1444 -68.0355 0
17.2709 -68.0003 0
17.1444 -68.2147 0
17.4351 -67.3979 0
17.2709 -68.0003 0
17.9038 -67.4146 0
17.4978 -68.1188 0
17.2709 -68.0003 0
17.1444 -68.2147 0
17.4978 -68.1188 0
17.1444 -68.3853 0
18.8682 -65.205 0
18.3738 -66.4188 0
19.9875 -65.0105 0
19.2505 -66.2346 0
18.3738 -66.4188 0
17.9038 -67.4146 0
19.2505 -66.2346 0
18.483 -67.2929 0
19.9875 -65.0105 0
19.2505 -66.2346 0
21.2507 -64.7357 0
20.3128 -65.9571 0
19.2505 -66.2346 0
18.483 -67.2929 0
20.3128 -65.9571 0
19.3494 -67.0037 0
17.9038 -67.4146 0
17.4978 -68.1188 0
18.483 -67.2929 0
17.7547 -68.1681 0
17.4978 -68.1188 0
17.1444 -68.3853 0
17.7547 -68.1681 0
17.1444 -68.5511 0
18.483 -67.2929 0
17.7547 -68.1681 0
19.3494 -67.0037 0
18.3043 -68.0531 0
17.7547 -68.1681 0
17.1444 -68.5511 0
18.3043 -68.0531 0
17.1444 -68.6107 0
3.70182 -34.426 0
4.26893 -37.9336 0
7.20208 -34.5843 0
7.62797 -38.1047 0
4.26893 -37.9336 0
4.87805 -41.2954 0
7.62797 -38.1047 0
8.08588 -41.4788 0
7.20208 -34.5843 0
7.62797 -38.1047 0
10.5654 -34.693 0
10.8467 -38.2243 0
7.62797 -38.1047 0
8.08588 -41.4788 0
10.8467 -38.2243 0
11.1514 -41.6083 0
4.87805 -41.2954 0
5.52784 -44.5005 0
8.08588 -41.4788 0
8.57437 -44.6956 0
5.52784 -44.5005 0
6.21673 -47.5381 0
8.57437 -44.6956 0
9.09204 -47.7444 0
8.08588 -41.4788 0
8.57437 -44.6956 0
11.1514 -41.6083 0
11.4775 -44.8339 0
8.57437 -44.6956 0
9.09204 -47.7444 0
11.4775 -44.8339 0
11.8233 -47.8908 0
10.5654 -34.693 0
10.8467 -38.2243 0
13.8398 -34.7512 0
13.9763 -38.2917 0
10.8467 -38.2243 0