# vtk DataFile Version 3.0
#This file was generated by the deal.II library on 2020/9/2 at 8:40:02
ASCII
DATASET UNSTRUCTURED_GRID

POINTS 1536 double
5 0 0
5.125 0 0
5 0.125 0
5.125 0.125 0
5.125 0 0
5.25 0 0
5.125 0.125 0
5.25 0.125 0
5 0.125 0
5.125 0.125 0
5 0.25 0
5.125 0.25 0
5.125 0.125 0
5.25 0.125 0
5.125 0.25 0
5.25 0.25 0
5.25 0 0
5.375 0 0
5.25 0.125 0
5.375 0.125 0
5.375 0 0
5.5 0 0
5.375 0.125 0
5.5 0.125 0
5.25 0.125 0
5.375 0.125 0
5.25 0.25 0
5.375 0.25 0
5.375 0.125 0
5.5 0.125 0
5.375 0.25 0
5.5 0.25 0
5 0.25 0
5.125 0.25 0
5 0.375 0
5.125 0.375 0
5.125 0.25 0
5.25 0.25 0
5.125 0.375 0
5.25 0.375 0
5 0.375 0
5.125 0.375 0
5 0.5 0
5.125 0.5 0
5.125 0.375 0
5.25 0.375 0
5.125 0.5 0
5.25 0.5 0
5.25 0.25 0
5.375 0.25 0
5.25 0.375 0
5.375 0.375 0
5.375 0.25 0
5.5 0.25 0
5.375 0.375 0
5.5 0.375 0
5.25 0.375 0
5.375 0.375 0
5.25 0.5 0
5.375 0.5 0
5.375 0.375 0
5.5 0.375 0
5.375 0.5 0
5.5 0.5 0
5.5 0 0
5.625 0 0
5.5 0.125 0
5.625 0.125 0
5.625 0 0
5.75 0 0
5.625 0.125 0
5.75 0.125 0
5.5 0.125 0
5.625 0.125 0
5.5 0.25 0
5.625 0.25 0
5.625 0.125 0
5.75 0.125 0
5.625 0.25 0
5.75 0.25 0
5.75 0 0
5.875 0 0
5.75 0.125 0
5.875 0.125 0
5.875 0 0
6 0 0
5.875 0.125 0
6 0.125 0
5.75 0.125 0
5.875 0.125 0
5.75 0.25 0
5.875 0.25 0
5.875 0.125 0
6 0.125 0
5.875 0.25 0
6 0.25 0
5.5 0.25 0
5.625 0.25 0
5.5 0.375 0
5.625 0.375 0
5.625 0.25 0
5.75 0.25 0
5.625 0.375 0
5.75 0.375 0
5.5 0.375 0
5.625 0.375 0
5.5 0.5 0
5.625 0.5 0
5.625 0.375 0
5.75 0.375 0
5.625 0.5 0
5.75 0.5 0
5.75 0.25 0
5.875 0.25 0
5.75 0.375 0
5.875 0.375 0
5.875 0.25 0
6 0.25 0
5.875 0.375 0
6 0.375 0
5.75 0.375 0
5.875 0.375 0
5.75 0.5 0
5.875 0.5 0
5.875 0.375 0
6 0.375 0
5.875 0.5 0
6 0.5 0
5 0.5 0
5.125 0.5 0
5 0.625 0
5.125 0.625 0
5.125 0.5 0
5.25 0.5 0
5.125 0.625 0
5.25 0.625 0
5 0.625 0
5.125 0.625 0
5 0.75 0
5.125 0.75 0
5.125 0.625 0
5.25 0.625 0
5.125 0.75 0
5.25 0.75 0
5.25 0.5 0
5.375 0.5 0
5.25 0.625 0
5.375 0.625 0
5.375 0.5 0
5.5 0.5 0
5.375 0.625 0
5.5 0.625 0
5.25 0.625 0
5.375 0.625 0
5.25 0.75 0
5.375 0.75 0
5.375 0.625 0
5.5 0.625 0
5.375 0.75 0
5.5 0.75 0
5 0.75 0
5.125 0.75 0
5 0.875 0
5.125 0.875 0
5.125 0.75 0
5.25 0.75 0
5.125 0.875 0
5.25 0.875 0
5 0.875 0
5.125 0.875 0
5 1 0
5.125 1 0
5.125 0.875 0
5.25 0.875 0
5.125 1 0
5.25 1 0
5.25 0.75 0
5.375 0.75 0
5.25 0.875 0
5.375 0.875 0
5.375 0.75 0
5.5 0.75 0
5.375 0.875 0
5.5 0.875 0
5.25 0.875 0
5.375 0.875 0
5.25 1 0
5.375 1 0
5.375 0.875 0
5.5 0.875 0
5.375 1 0
5.5 1 0
5.5 0.5 0
5.625 0.5 0
5.5 0.625 0
5.625 0.625 0
5.625 0.5 0
5.75 0.5 0
5.625 0.625 0
5.75 0.625 0
5.5 0.625 0
5.625 0.625 0
5.5 0.75 0
5.625 0.75 0
5.625 0.625 0
5.75 0.625 0
5.625 0.75 0
5.75 0.75 0
5.75 0.5 0
5.875 0.5 0
5.75 0.625 0
5.875 0.625 0
5.875 0.5 0
6 0.5 0
5.875 0.625 0
6 0.625 0
5.75 0.625 0
5.875 0.625 0
5.75 0.75 0
5.875 0.75 0
5.875 0.625 0
6 0.625 0
5.875 0.75 0
6 0.75 0
5.5 0.75 0
5.625 0.75 0
5.5 0.875 0
5.625 0.875 0
5.625 0.75 0
5.75 0.75 0
5.625 0.875 0
5.75 0.875 0
5.5 0.875 0
5.625 0.875 0
5.5 1 0
5.625 1 0
5.625 0.875 0
5.75 0.875 0
5.625 1 0
5.75 1 0
5.75 0.75 0
5.875 0.75 0
5.75 0.875 0
5.875 0.875 0
5.875 0.75 0
6 0.75 0
5.875 0.875 0
6 0.875 0
5.75 0.875 0
5.875 0.875 0
5.75 1 0
5.875 1 0
5.875 0.875 0
6 0.875 0
5.875 1 0
6 1 0
4 0 0
4.125 0 0
4 0.125 0
4.125 0.125 0
4.125 0 0
4.25 0 0
4.125 0.125 0
4.25 0.125 0
4 0.125 0
4.125 0.125 0
4 0.25 0
4.125 0.25 0
4.125 0.125 0
4.25 0.125 0
4.125 0.25 0
4.25 0.25 0
4.25 0 0
4.375 0 0
4.25 0.125 0
4.375 0.125 0
4.375 0 0
4.5 0 0
4.375 0.125 0
4.5 0.125 0
4.25 0.125 0
4.375 0.125 0
4.25 0.25 0
4.375 0.25 0
4.375 0.125 0
4.5 0.125 0
4.375 0.25 0
4.5 0.25 0
4 0.25 0
4.125 0.25 0
4 0.375 0
4.125 0.375 0
4.125 0.25 0
4.25 0.25 0
4.125 0.375 0
4.25 0.375 0
4 0.375 0
4.125 0.375 0
4 0.5 0
4.125 0.5 0
4.125 0.375 0
4.25 0.375 0
4.125 0.5 0
4.25 0.5 0
4.25 0.25 0
4.375 0.25 0
4.25 0.375 0
4.375 0.375 0
4.375 0.25 0
4.5 0.25 0
4.375 0.375 0
4.5 0.375 0
4.25 0.375 0
4.375 0.375 0
4.25 0.5 0
4.375 0.5 0
4.375 0.375 0
4.5 0.375 0
4.375 0.5 0
4.5 0.5 0
4.5 0 0
4.625 0 0
4.5 0.125 0
4.625 0.125 0
4.625 0 0
4.75 0 0
4.625 0.125 0
4.75 0.125 0
4.5 0.125 0
4.625 0.125 0
4.5 0.25 0
4.625 0.25 0
4.625 0.125 0
4.75 0.125 0
4.625 0.25 0
4.75 0.25 0
4.75 0 0
4.875 0 0
4.75 0.125 0
4.875 0.125 0
4.875 0 0
5 0 0
4.875 0.125 0
5 0.125 0
4.75 0.125 0
4.875 0.125 0
4.75 0.25 0
4.875 0.25 0
4.875 0.125 0
5 0.125 0
4.875 0.25 0
5 0.25 0
4.5 0.25 0
4.625 0.25 0
4.5 0.375 0
4.625 0.375 0
4.625 0.25 0
4.75 0.25 0
4.625 0.375 0
4.75 0.375 0
4.5 0.375 0
4.625 0.375 0
4.5 0.5 0
4.625 0.5 0
4.625 0.375 0
4.75 0.375 0
4.625 0.5 0
4.75 0.5 0
4.75 0.25 0
4.875 0.25 0
4.75 0.375 0
4.875 0.375 0
4.875 0.25 0
5 0.25 0
4.875 0.375 0
5 0.375 0
4.75 0.375 0
4.875 0.375 0
4.75 0.5 0
4.875 0.5 0
4.875 0.375 0
5 0.375 0
4.875 0.5 0
5 0.5 0
4 0.5 0
4.125 0.5 0
4 0.625 0
4.125 0.625 0
4.125 0.5 0
4.25 0.5 0
4.125 0.625 0
4.25 0.625 0
4 0.625 0
4.125 0.625 0
4 0.75 0
4.125 0.75 0
4.125 0.625 0
4.25 0.625 0
4.125 0.75 0
4.25 0.75 0
4.25 0.5 0
4.375 0.5 0
4.25 0.625 0
4.375 0.625 0
4.375 0.5 0
4.5 0.5 0
4.375 0.625 0
4.5 0.625 0
4.25 0.625 0
4.375 0.625 0
4.25 0.75 0
4.375 0.75 0
4.375 0.625 0
4.5 0.625 0
4.375 0.75 0
4.5 0.75 0
4 0.75 0
4.125 0.75 0
4 0.875 0
4.125 0.875 0
4.125 0.75 0
4.25 0.75 0
4.125 0.875 0
4.25 0.875 0
4 0.875 0
4.125 0.875 0
4 1 0
4.125 1 0
4.125 0.875 0
4.25 0.875 0
4.125 1 0
4.25 1 0
4.25 0.75 0
4.375 0.75 0
4.25 0.875 0
4.375 0.875 0
4.375 0.75 0
4.5 0.75 0
4.375 0.875 0
4.5 0.875 0
4.25 0.875 0
4.375 0.875 0
4.25 1 0
4.375 1 0
4.375 0.875 0
4.5 0.875 0
4.375 1 0
4.5 1 0
4.5 0.5 0
4.625 0.5 0
4.5 0.625 0
4.625 0.625 0
4.625 0.5 0
4.75 0.5 0
4.625 0.625 0
4.75 0.625 0
4.5 0.625 0
4.625 0.625 0
4.5 0.75 0
4.625 0.75 0
4.625 0.625 0
4.75 0.625 0
4.625 0.75 0
4.75 0.75 0
4.75 0.5 0
4.875 0.5 0
4.75 0.625 0
4.875 0.625 0
4.875 0.5 0
5 0.5 0
4.875 0.625 0
5 0.625 0
4.75 0.625 0
4.875 0.625 0
4.75 0.75 0
4.875 0.75 0
4.875 0.625 0
5 0.625 0
4.875 0.75 0
5 0.75 0
4.5 0.75 0
4.625 0.75 0
4.5 0.875 0
4.625 0.875 0
4.625 0.75 0
4.75 0.75 0
4.625 0.875 0
4.75 0.875 0
4.5 0.875 0
4.625 0.875 0
4.5 1 0
4.625 1 0
4.625 0.875 0
4.75 0.875 0
4.625 1 0
4.75 1 0
4.75 0.75 0
4.875 0.75 0
4.75 0.875 0
4.875 0.875 0
4.875 0.75 0
5 0.75 0
4.875 0.875 0
5 0.875 0
4.75 0.875 0
4.875 0.875 0
4.75 1 0
4.875 1 0
4.875 0.875 0
5 0.875 0
4.875 1 0
5 1 0
3 0 0
3.125 0 0
3 0.125 0
3.125 0.125 0
3.125 0 0
3.25 0 0
3.125 0.125 0
3.25 0.125 0
3 0.125 0
3.125 0.125 0
3 0.25 0
3.125 0.25 0
3.125 0.125 0
3.25 0.125 0
3.125 0.25 0
3.25 0.25 0
3.25 0 0
3.375 0 0
3.25 0.125 0
3.375 0.125 0
3.375 0 0
3.5 0 0
3.375 0.125 0
3.5 0.125 0
3.25 0.125 0
3.375 0.125 0
3.25 0.25 0
3.375 0.25 0
3.375 0.125 0
3.5 0.125 0
3.375 0.25 0
3.5 0.25 0
3 0.25 0
3.125 0.25 0
3 0.375 0
3.125 0.375 0
3.125 0.25 0
3.25 0.25 0
3.125 0.375 0
3.25 0.375 0
3 0.375 0
3.125 0.375 0
3 0.5 0
3.125 0.5 0
3.125 0.375 0
3.25 0.375 0
3.125 0.5 0
3.25 0.5 0
3.25 0.25 0
3.375 0.25 0
3.25 0.375 0
3.375 0.375 0
3.375 0.25 0
3.5 0.25 0
3.375 0.375 0
3.5 0.375 0
3.25 0.375 0
3.375 0.375 0
3.25 0.5 0
3.375 0.5 0
3.375 0.375 0
3.5 0.375 0
3.375 0.5 0
3.5 0.5 0
3.5 0 0
3.625 0 0
3.5 0.125 0
3.625 0.125 0
3.625 0 0
3.75 0 0
3.625 0.125 0
3.75 0.125 0
3.5 0.125 0
3.625 0.125 0
3.5 0.25 0
3.625 0.25 0
3.625 0.125 0
3.75 0.125 0
3.625 0.25 0
3.75 0.25 0
3.75 0 0
3.875 0 0
3.75 0.125 0
3.875 0.125 0
3.875 0 0
4 0 0
3.875 0.125 0
4 0.125 0
3.75 0.125 0
3.875 0.125 0
3.75 0.25 0
3.875 0.25 0
3.875 0.125 0
4 0.125 0
3.875 0.25 0
4 0.25 0
3.5 0.25 0
3.625 0.25 0
3.5 0.375 0
3.625 0.375 0
3.625 0.25 0
3.75 0.25 0
3.625 0.375 0
3.75 0.375 0
3.5 0.375 0
3.625 0.375 0
3.5 0.5 0
3.625 0.5 0
3.625 0.375 0
3.75 0.375 0
3.625 0.5 0
3.75 0.5 0
3.75 0.25 0
3.875 0.25 0
3.75 0.375 0
3.875 0.375 0
3.875 0.25 0
4 0.25 0
3.875 0.375 0
4 0.375 0
3.75 0.375 0
3.875 0.375 0
3.75 0.5 0
3.875 0.5 0
3.875 0.375 0
4 0.375 0
3.875 0.5 0
4 0.5 0
3 0.5 0
3.125 0.5 0
3 0.625 0
3.125 0.625 0
3.125 0.5 0
3.25 0.5 0
3.125 0.625 0
3.25 0.625 0
3 0.625 0
3.125 0.625 0
3 0.75 0
3.125 0.75 0
3.125 0.625 0
3.25 0.625 0
3.125 0.75 0
3.25 0.75 0
3.25 0.5 0
3.375 0.5 0
3.25 0.625 0
3.375 0.625 0
3.375 0.5 0
3.5 0.5 0
3.375 0.625 0
3.5 0.625 0
3.25 0.625 0
3.375 0.625 0
3.25 0.75 0
3.375 0.75 0
3.375 0.625 0
3.5 0.625 0
3.375 0.75 0
3.5 0.75 0
3 0.75 0
3.125 0.75 0
3 0.875 0
3.125 0.875 0
3.125 0.75 0
3.25 0.75 0
3.125 0.875 0
3.25 0.875 0
3 0.875 0
3.125 0.875 0
3 1 0
3.125 1 0
3.125 0.875 0
3.25 0.875 0
3.125 1 0
3.25 1 0
3.25 0.75 0
3.375 0.75 0
3.25 0.875 0
3.375 0.875 0
3.375 0.75 0
3.5 0.75 0
3.375 0.875 0
3.5 0.875 0
3.25 0.875 0
3.375 0.875 0
3.25 1 0
3.375 1 0
3.375 0.875 0
3.5 0.875 0
3.375 1 0
3.5 1 0
3.5 0.5 0
3.625 0.5 0
3.5 0.625 0
3.625 0.625 0
3.625 0.5 0
3.75 0.5 0
3.625 0.625 0
3.75 0.625 0
3.5 0.625 0
3.625 0.625 0
3.5 0.75 0
3.625 0.75 0
3.625 0.625 0
3.75 0.625 0
3.625 0.75 0
3.75 0.75 0
3.75 0.5 0
3.875 0.5 0
3.75 0.625 0
3.875 0.625 0
3.875 0.5 0
4 0.5 0
3.875 0.625 0
4 0.625 0
3.75 0.625 0
3.875 0.625 0
3.75 0.75 0
3.875 0.75 0
3.875 0.625 0
4 0.625 0
3.875 0.75 0
4 0.75 0
3.5 0.75 0
3.625 0.75 0
3.5 0.875 0
3.625 0.875 0
3.625 0.75 0
3.75 0.75 0
3.625 0.875 0
3.75 0.875 0
3.5 0.875 0
3.625 0.875 0
3.5 1 0
3.625 1 0
3.625 0.875 0
3.75 0.875 0
3.625 1 0
3.75 1 0
3.75 0.75 0
3.875 0.75 0
3.75 0.875 0
3.875 0.875 0
3.875 0.75 0
4 0.75 0
3.875 0.875 0
4 0.875 0
3.75 0.875 0
3.875 0.875 0
3.75 1 0
3.875 1 0
3.875 0.875 0
4 0.875 0
3.875 1 0
4 1 0
2 0 0
2.125 0 0
2 0.125 0
2.125 0.125 0
2.125 0 0
2.25 0 0
2.125 0.125 0
2.25 0.125 0
2 0.125 0
2.125 0.125 0
2 0.25 0
2.125 0.25 0
2.125 0.125 0
2.25 0.125 0
2.125 0.25 0
2.25 0.25 0
2.25 0 0
2.375 0 0
2.25 0.125 0
2.375 0.125 0
2.375 0 0
2.5 0 0
2.375 0.125 0
2.5 0.125 0
2.25 0.125 0
2.375 0.125 0
2.25 0.25 0
2.375 0.25 0
2.375 0.125 0
2.5 0.125 0
2.375 0.25 0
2.5 0.25 0
2 0.25 0
2.125 0.25 0
2 0.375 0
2.125 0.375 0
2.125 0.25 0
2.25 0.25 0
2.125 0.375 0
2.25 0.375 0
2 0.375 0
2.125 0.375 0
2 0.5 0
2.125 0.5 0
2.125 0.375 0
2.25 0.375 0
2.125 0.5 0
2.25 0.5 0
2.25 0.25 0
2.375 0.25 0
2.25 0.375 0
2.375 0.375 0
2.375 0.25 0
[...]
POINT_DATA 1536
VECTORS displacements double
36.45 -42.154 0
37.1327 -37.7395 0
32.2224 -42.3569 0
32.733 -37.9314 0
37.1327 -37.7395 0
37.7832 -33.1572 0
32.733 -37.9314 0
33.2145 -33.3384 0
32.2224 -42.3569 0
32.733 -37.9314 0
28.2929 -42.495 0
28.6318 -38.0582 0
32.733 -37.9314 0
33.2145 -33.3384 0
28.6318 -38.0582 0
28.9449 -33.4521 0
37.7832 -33.1572 0
38.4063 -28.4121 0
33.2145 -33.3384 0
33.6662 -28.583 0
38.4063 -28.4121 0
39.0121 -23.5026 0
33.6662 -28.583 0
34.0856 -23.6651 0
33.2145 -33.3384 0
33.6662 -28.583 0
28.9449 -33.4521 0
29.2265 -28.6814 0
33.6662 -28.583 0
34.0856 -23.6651 0
29.2265 -28.6814 0
29.4674 -23.7433 0
28.2929 -42.495 0
28.6318 -38.0582 0
24.5336 -42.5651 0
24.6962 -38.117 0
28.6318 -38.0582 0
28.9449 -33.4521 0
24.6962 -38.117 0
24.8385 -33.4968 0
24.5336 -42.5651 0
24.6962 -38.117 0
20.8498 -42.5684 0
20.8352 -38.1111 0
24.6962 -38.117 0
24.8385 -33.4968 0
20.8352 -38.1111 0
20.808 -33.48 0
28.9449 -33.4521 0
29.2265 -28.6814 0
24.8385 -33.4968 0
24.9533 -28.7092 0
29.2265 -28.6814 0
29.4674 -23.7433 0
24.9533 -28.7092 0
25.0293 -23.7541 0
24.8385 -33.4968 0
24.9533 -28.7092 0
20.808 -33.48 0
20.7619 -28.6817 0
24.9533 -28.7092 0
25.0293 -23.7541 0
20.7619 -28.6817 0
20.6879 -23.722 0
39.0121 -23.5026 0
39.6199 -18.4169 0
34.0856 -23.6651 0
34.4644 -18.5652 0
39.6199 -18.4169 0
40.2727 -13.0765 0
34.4644 -18.5652 0
34.7732 -13.2462 0
34.0856 -23.6651 0
34.4644 -18.5652 0
29.4674 -23.7433 0
29.6497 -18.6223 0
34.4644 -18.5652 0
34.7732 -13.2462 0
29.6497 -18.6223 0
29.7394 -13.2416 0
40.2727 -13.0765 0
41.0358 -7.45116 0
34.7732 -13.2462 0
34.8642 -7.38554 0
41.0358 -7.45116 0
41.4703 0 0
34.8642 -7.38554 0
35.0303 -1.35402 0
34.7732 -13.2462 0
34.8642 -7.38554 0
29.7394 -13.2416 0
29.7253 -7.61351 0
34.8642 -7.38554 0
35.0303 -1.35402 0
29.7253 -7.61351 0
29.8742 -2.31288 0
29.4674 -23.7433 0
29.6497 -18.6223 0
25.0293 -23.7541 0
25.0506 -18.6167 0
29.6497 -18.6223 0
29.7394 -13.2416 0
25.0506 -18.6167 0
24.9998 -13.3078 0
25.0293 -23.7541 0
25.0506 -18.6167 0
20.6879 -23.722 0
20.581 -18.6216 0
25.0506 -18.6167 0
24.9998 -13.3078 0
20.581 -18.6216 0
20.493 -13.446 0
29.7394 -13.2416 0
29.7253 -7.61351 0
24.9998 -13.3078 0
25.0072 -7.98812 0
29.7253 -7.61351 0
29.8742 -2.31288 0
25.0072 -7.98812 0
25.1348 -2.98542 0
24.9998 -13.3078 0
25.0072 -7.98812 0
20.493 -13.446 0
20.4865 -8.32795 0
25.0072 -7.98812 0
25.1348 -2.98542 0
20.4865 -8.32795 0
20.58 -3.49993 0
20.8498 -42.5684 0
20.8352 -38.1111 0
17.1641 -42.5098 0
16.974 -38.0478 0
20.8352 -38.1111 0
20.808 -33.48 0
16.974 -38.0478 0
16.7814 -33.4137 0
17.1641 -42.5098 0
16.974 -38.0478 0
13.3997 -42.3971 0
13.0406 -37.9383 0
16.974 -38.0478 0
16.7814 -33.4137 0
13.0406 -37.9383 0
12.6953 -33.314 0
20.808 -33.48 0
20.7619 -28.6817 0
16.7814 -33.4137 0
16.5838 -28.6191 0
20.7619 -28.6817 0
20.6879 -23.722 0
16.5838 -28.6191 0
16.3847 -23.6836 0
16.7814 -33.4137 0
16.5838 -28.6191 0
12.6953 -33.314 0
12.3698 -28.5387 0
16.5838 -28.6191 0
16.3847 -23.6836 0
12.3698 -28.5387 0
12.081 -23.6388 0
13.3997 -42.3971 0
13.0406 -37.9383 0
9.47803 -42.24 0
8.96622 -37.7908 0
13.0406 -37.9383 0
12.6953 -33.314 0
8.96622 -37.7908 0
8.48903 -33.1831 0
9.47803 -42.24 0
8.96622 -37.7908 0
5.26716 -42.0383 0
4.61923 -37.6043 0
8.96622 -37.7908 0
8.48903 -33.1831 0
4.61923 -37.6043 0
4.03433 -33.0177 0
12.6953 -33.314 0
12.3698 -28.5387 0
8.48903 -33.1831 0
8.06204 -28.4345 0
12.3698 -28.5387 0
12.081 -23.6388 0
8.06204 -28.4345 0
7.70538 -23.5743 0
8.48903 -33.1831 0
8.06204 -28.4345 0
4.03433 -33.0177 0
3.51857 -28.299 0
8.06204 -28.4345 0
7.70538 -23.5743 0
3.51857 -28.299 0
3.07879 -23.4695 0
20.6879 -23.722 0
20.581 -18.6216 0
16.3847 -23.6836 0
16.2078 -18.6464 0
20.581 -18.6216 0
20.493 -13.446 0
16.2078 -18.6464 0
16.0939 -13.5811 0
16.3847 -23.6836 0
16.2078 -18.6464 0
12.081 -23.6388 0
11.8567 -18.6622 0
16.2078 -18.6464 0
16.0939 -13.5811 0
11.8567 -18.6622 0
11.7115 -13.6736 0
20.493 -13.446 0
20.4865 -8.32795 0
16.0939 -13.5811 0
16.0667 -8.59195 0
20.4865 -8.32795 0
20.58 -3.49993 0
16.0667 -8.59195 0
16.1281 -3.87803 0
16.0939 -13.5811 0
16.0667 -8.59195 0
11.7115 -13.6736 0
11.6587 -8.76856 0
16.0667 -8.59195 0
16.1281 -3.87803 0
11.6587 -8.76856 0
11.6804 -4.09543 0
12.081 -23.6388 0
11.8567 -18.6622 0
7.70538 -23.5743 0
7.42694 -18.6411 0
11.8567 -18.6622 0
11.7115 -13.6736 0
7.42694 -18.6411 0
7.2401 -13.7 0
7.70538 -23.5743 0
7.42694 -18.6411 0
3.07879 -23.4695 0
2.74299 -18.5708 0
7.42694 -18.6411 0
7.2401 -13.7 0
2.74299 -18.5708 0
2.54547 -13.6734 0
11.7115 -13.6736 0
11.6587 -8.76856 0
7.2401 -13.7 0
7.15318 -8.84976 0
11.6587 -8.76856 0
11.6804 -4.09543 0
7.15318 -8.84976 0
7.13833 -4.16246 0
7.2401 -13.7 0
7.15318 -8.84976 0
2.54547 -13.6734 0
2.48303 -8.8632 0
7.15318 -8.84976 0
7.13833 -4.16246 0
2.48303 -8.8632 0
2.47978 -4.16599 0
29.7152 -70.3764 0
30.6822 -67.6311 0
27.1829 -70.6614 0
27.899 -67.9061 0
30.6822 -67.6311 0
31.613 -64.6402 0
27.899 -67.9061 0
28.5918 -64.9054 0
27.1829 -70.6614 0
27.899 -67.9061 0
24.9324 -70.8583 0
25.4001 -68.0969 0
27.899 -67.9061 0
28.5918 -64.9054 0
25.4001 -68.0969 0
25.857 -65.0901 0
31.613 -64.6402 0
32.5081 -61.4159 0
28.5918 -64.9054 0
29.2607 -61.6711 0
32.5081 -61.4159 0
33.3676 -57.969 0
29.2607 -61.6711 0
29.905 -58.2141 0
28.5918 -64.9054 0
29.2607 -61.6711 0
25.857 -65.0901 0
26.302 -61.8497 0
29.2607 -61.6711 0
29.905 -58.2141 0
26.302 -61.8497 0
26.7337 -58.3861 0
24.9324 -70.8583 0
25.4001 -68.0969 0
22.8969 -70.9655 0
23.112 -68.2008 0
25.4001 -68.0969 0
25.857 -65.0901 0
23.112 -68.2008 0
23.3278 -65.1919 0
22.8969 -70.9655 0
23.112 -68.2008 0
20.9392 -70.9848 0
20.9057 -68.2192 0
23.112 -68.2008 0
23.3278 -65.1919 0
20.9057 -68.2192 0
20.8824 -65.2114 0
25.857 -65.0901 0
26.302 -61.8497 0
23.3278 -65.1919 0
23.5431 -61.9491 0
26.302 -61.8497 0
26.7337 -58.3861 0
23.5431 -61.9491 0
23.7559 -58.4824 0
23.3278 -65.1919 0
23.5431 -61.9491 0
20.8824 -65.2114 0
20.8682 -61.9699 0
23.5431 -61.9491 0
23.7559 -58.4824 0
20.8682 -61.9699 0
20.8612 -58.5035 0
33.3676 -57.969 0
34.1916 -54.3098 0
29.905 -58.2141 0
30.5241 -54.5447 0
34.1916 -54.3098 0
34.98 -50.4481 0
30.5241 -54.5447 0
31.1172 -50.6725 0
29.905 -58.2141 0
30.5241 -54.5447 0
26.7337 -58.3861 0
27.1503 -54.7095 0
30.5241 -54.5447 0
31.1172 -50.6725 0
27.1503 -54.7095 0
27.5501 -50.8293 0
34.98 -50.4481 0
35.7327 -46.3931 0
31.1172 -50.6725 0
31.6836 -46.6068 0
35.7327 -46.3931 0
36.45 -42.154 0
31.6836 -46.6068 0
32.2224 -42.3569 0
31.1172 -50.6725 0
31.6836 -46.6068 0
27.5501 -50.8293 0
27.9316 -46.7549 0
31.6836 -46.6068 0
32.2224 -42.3569 0
27.9316 -46.7549 0
28.2929 -42.495 0
26.7337 -58.3861 0
27.1503 -54.7095 0
23.7559 -58.4824 0
23.9639 -54.8015 0
27.1503 -54.7095 0
27.5501 -50.8293 0
23.9639 -54.8015 0
24.1646 -50.9157 0
23.7559 -58.4824 0
23.9639 -54.8015 0
20.8612 -58.5035 0
20.8589 -54.8211 0
23.9639 -54.8015 0
24.1646 -50.9157 0
20.8589 -54.8211 0
20.8583 -50.9318 0
27.5501 -50.8293 0
27.9316 -46.7549 0
24.1646 -50.9157 0
24.3553 -46.834 0
27.9316 -46.7549 0
28.2929 -42.495 0
24.3553 -46.834 0
24.5336 -42.5651 0
24.1646 -50.9157 0
24.3553 -46.834 0
20.8583 -50.9318 0
20.8564 -46.8447 0
24.3553 -46.834 0
24.5336 -42.5651 0
20.8564 -46.8447 0
20.8498 -42.5684 0
20.9392 -70.9848 0
20.9057 -68.2192 0
18.9578 -70.9206 0
18.6843 -68.1564 0
20.9057 -68.2192 0
20.8824 -65.2114 0
18.6843 -68.1564 0
18.428 -65.1526 0
18.9578 -70.9206 0
18.6843 -68.1564 0
16.8588 -70.7787 0
16.3563 -68.0186 0
18.6843 -68.1564 0
18.428 -65.1526 0
16.3563 -68.0186 0
15.8754 -65.0212 0
20.8824 -65.2114 0
20.8682 -61.9699 0
18.428 -65.1526 0
18.1882 -61.9155 0
20.8682 -61.9699 0
20.8612 -58.5035 0
18.1882 -61.9155 0
17.9634 -58.4524 0
18.428 -65.1526 0
18.1882 -61.9155 0
15.8754 -65.0212 0
15.4161 -61.7908 0
18.1882 -61.9155 0
17.9634 -58.4524 0
15.4161 -61.7908 0
14.9774 -58.3335 0
16.8588 -70.7787 0
16.3563 -68.0186 0
14.5258 -70.5668 0
13.8072 -67.8134 0
16.3563 -68.0186 0
15.8754 -65.0212 0
13.8072 -67.8134 0
13.1127 -64.8238 0
14.5258 -70.5668 0
13.8072 -67.8134 0
11.9647 -70.284 0
11.0148 -67.539 0
13.8072 -67.8134 0
13.1127 -64.8238 0
11.0148 -67.539 0
10.0918 -64.5582 0
15.8754 -65.0212 0
15.4161 -61.7908 0
13.1127 -64.8238 0
12.4429 -61.6015 0
15.4161 -61.7908 0
14.9774 -58.3335 0
12.4429 -61.6015 0
11.7982 -58.1517 0
13.1127 -64.8238 0
12.4429 -61.6015 0
10.0918 -64.5582 0
9.1981 -61.3451 0
12.4429 -61.6015 0
11.7982 -58.1517 0
9.1981 -61.3451 0
8.33616 -57.905 0
20.8612 -58.5035 0
20.8589 -54.8211 0
17.9634 -58.4524 0
17.7513 -54.7714 0
20.8589 -54.8211 0
20.8583 -50.9318 0
17.7513 -54.7714 0
17.5494 -50.881 0
17.9634 -58.4524 0
17.7513 -54.7714 0
14.9774 -58.3335 0
14.5581 -54.6564 0
17.7513 -54.7714 0
17.5494 -50.881 0
14.5581 -54.6564 0
14.1568 -50.768 0
20.8583 -50.9318 0
20.8564 -46.8447 0
17.5494 -50.881 0
17.3548 -46.7906 0
20.8564 -46.8447 0
20.8498 -42.5684 0
17.3548 -46.7906 0
17.1641 -42.5098 0
17.5494 -50.881 0
17.3548 -46.7906 0
14.1568 -50.768 0
13.7714 -46.6778 0
17.3548 -46.7906 0
17.1641 -42.5098 0
13.7714 -46.6778 0
13.3997 -42.3971 0
14.9774 -58.3335 0
14.5581 -54.6564 0
11.7982 -58.1517 0
11.179 -54.4814 0
14.5581 -54.6564 0
14.1568 -50.768 0
11.179 -54.4814 0
10.5857 -50.5989 0
11.7982 -58.1517 0
11.179 -54.4814 0
8.33616 -57.905 0
7.50855 -54.2449 0
11.179 -54.4814 0
10.5857 -50.5989 0
7.50855 -54.2449 0
6.71828 -50.3731 0
14.1568 -50.768 0
13.7714 -46.6778 0
10.5857 -50.5989 0
10.0185 -46.5143 0
13.7714 -46.6778 0
13.3997 -42.3971 0
10.0185 -46.5143 0
9.47803 -42.24 0
10.5857 -50.5989 0
10.0185 -46.5143 0
6.71828 -50.3731 0
5.96932 -46.2999 0
10.0185 -46.5143 0
9.47803 -42.24 0
5.96932 -46.2999 0
5.26716 -42.0383 0
20.7351 -81.6177 0
21.9495 -81.4243 0
20.7351 -81.9675 0
21.5886 -81.7722 0
21.9495 -81.4243 0
23.1514 -80.8495 0
21.5886 -81.7722 0
22.4366 -81.192 0
20.7351 -81.9675 0
21.5886 -81.7722 0
20.7351 -82.2502 0
21.308 -82.0499 0
21.5886 -81.7722 0
22.4366 -81.192 0
21.308 -82.0499 0
21.8713 -81.4569 0
23.1514 -80.8495 0
24.3303 -79.9075 0
22.4366 -81.192 0
23.2739 -80.2421 0
24.3303 -79.9075 0
25.479 -78.6177 0
23.2739 -80.2421 0
24.0961 -78.9429 0
22.4366 -81.192 0
23.2739 -80.2421 0
21.8713 -81.4569 0
22.4191 -80.4912 0
23.2739 -80.2421 0
24.0961 -78.9429 0
22.4191 -80.4912 0
22.9499 -79.1772 0
20.7351 -82.2502 0
21.308 -82.0499 0
20.7351 -82.5792 0
21.1044 -82.3616 0
21.308 -82.0499 0
21.8713 -81.4569 0
21.1044 -82.3616 0
21.4456 -81.7258 0
20.7351 -82.5792 0
21.1044 -82.3616 0
20.7351 -82.9382 0
20.9085 -82.6937 0
21.1044 -82.3616 0
21.4456 -81.7258 0
20.9085 -82.6937 0
21.0368 -81.992 0
21.8713 -81.4569 0
22.4191 -80.4912 0
21.4456 -81.7258 0
21.746 -80.7099 0
22.4191 -80.4912 0
22.9499 -79.1772 0
21.746 -80.7099 0
22.0091 -79.3527 0
21.4456 -81.7258 0
21.746 -80.7099 0
21.0368 -81.992 0
21.1018 -80.899 0
21.746 -80.7099 0
22.0091 -79.3527 0
21.1018 -80.899 0
21.1103 -79.4741 0
25.479 -78.6177 0
26.5932 -77.0009 0
24.0961 -78.9429 0
24.8997 -77.3161 0
26.5932 -77.0009 0
27.6709 -75.0767 0
24.8997 -77.3161 0
25.6827 -75.3818 0
24.0961 -78.9429 0
24.8997 -77.3161 0
22.9499 -79.1772 0
23.4648 -77.538 0
24.8997 -77.3161 0
25.6827 -75.3818 0
23.4648 -77.538 0
23.9656 -75.5937 0
27.6709 -75.0767 0
28.7116 -72.8632 0
25.6827 -75.3818 0
26.444 -73.1582 0
28.7116 -72.8632 0
29.7152 -70.3764 0
26.444 -73.1582 0
27.1829 -70.6614 0
25.6827 -75.3818 0
26.444 -73.1582 0
23.9656 -75.5937 0
24.4544 -73.3619 0
26.444 -73.1582 0
27.1829 -70.6614 0
24.4544 -73.3619 0
24.9324 -70.8583 0
22.9499 -79.1772 0
23.4648 -77.538 0
22.0091 -79.3527 0
22.2458 -77.6826 0
23.4648 -77.538 0
23.9656 -75.5937 0
22.2458 -77.6826 0
22.4673 -75.7185 0
22.0091 -79.3527 0
22.2458 -77.6826 0
21.1103 -79.4741 0
21.0799 -77.7537 0
22.2458 -77.6826 0
22.4673 -75.7185 0
21.0799 -77.7537 0
21.032 -75.759 0
23.9656 -75.5937 0
24.4544 -73.3619 0
22.4673 -75.7185 0
22.6826 -73.4752 0
24.4544 -73.3619 0
24.9324 -70.8583 0
22.6826 -73.4752 0
22.8969 -70.9655 0
22.4673 -75.7185 0
22.6826 -73.4752 0
21.032 -75.759 0
20.9824 -73.5005 0
22.6826 -73.4752 0
22.8969 -70.9655 0
20.9824 -73.5005 0
20.9392 -70.9848 0
20.7351 -82.9382 0
20.9085 -82.6937 0
20.7351 -83.3049 0
20.698 -83.0161 0
20.9085 -82.6937 0
21.0368 -81.992 0
20.698 -83.0161 0
20.5949 -82.2173 0
20.7351 -83.3049 0
20.698 -83.0161 0
20.7351 -83.6551 0
20.4392 -83.2927 0
20.698 -83.0161 0
20.5949 -82.2173 0
20.4392 -83.2927 0
20.0682 -82.3495 0
21.0368 -81.992 0
21.1018 -80.899 0
20.5949 -82.2173 0
20.409 -81.0236 0
21.1018 -80.899 0
21.1103 -79.4741 0
20.409 -81.0236 0
20.1519 -79.5148 0
20.5949 -82.2173 0
20.409 -81.0236 0
20.0682 -82.3495 0
19.5834 -81.0226 0
20.409 -81.0236 0
20.1519 -79.5148 0
19.5834 -81.0226 0
19.0363 -79.4399 0
20.7351 -83.6551 0
20.4392 -83.2927 0
20.7351 -83.9559 0
20.107 -83.4336 0
20.4392 -83.2927 0
20.0682 -82.3495 0
20.107 -83.4336 0
19.3201 -82.2564 0
20.7351 -83.9559 0
20.107 -83.4336 0
20.7351 -83.982 0
19.3615 -83.2899 0
20.107 -83.4336 0
19.3201 -82.2564 0
19.3615 -83.2899 0
18.1484 -81.9336 0
20.0682 -82.3495 0
19.5834 -81.0226 0
19.3201 -82.2564 0
18.4651 -80.8391 0
19.5834 -81.0226 0
19.0363 -79.4399 0
18.4651 -80.8391 0
17.6316 -79.232 0
19.3201 -82.2564 0
18.4651 -80.8391 0
18.1484 -81.9336 0
17.0491 -80.5272 0
18.4651 -80.8391 0
17.6316 -79.232 0
17.0491 -80.5272 0
15.9886 -78.9222 0
21.1103 -79.4741 0
21.0799 -77.7537 0
20.1519 -79.5148 0
19.856 -77.7396 0
21.0799 -77.7537 0
21.032 -75.759 0
19.856 -77.7396 0
19.5494 -75.714 0
20.1519 -79.5148 0
19.856 -77.7396 0
19.0363 -79.4399 0
18.4771 -77.6267 0
19.856 -77.7396 0
19.5494 -75.714 0
18.4771 -77.6267 0
17.9228 -75.581 0
21.032 -75.759 0
20.9824 -73.5005 0
19.5494 -75.714 0
19.2473 -73.4407 0
20.9824 -73.5005 0
20.9392 -70.9848 0
19.2473 -73.4407 0
18.9578 -70.9206 0
19.5494 -75.714 0
19.2473 -73.4407 0
17.9228 -75.581 0
17.3818 -73.2993 0
19.2473 -73.4407 0
18.9578 -70.9206 0
17.3818 -73.2993 0
16.8588 -70.7787 0
19.0363 -79.4399 0
18.4771 -77.6267 0
17.6316 -79.232 0
16.8212 -77.4096 0
18.4771 -77.6267 0
17.9228 -75.581 0
16.8212 -77.4096 0
16.0333 -75.3622 0
17.6316 -79.232 0
16.8212 -77.4096 0
15.9886 -78.9222 0
14.9515 -77.1059 0
16.8212 -77.4096 0
16.0333 -75.3622 0
14.9515 -77.1059 0
13.9349 -75.0648 0
17.9228 -75.581 0
17.3818 -73.2993 0
16.0333 -75.3622 0
15.268 -73.0826 0
17.3818 -73.2993 0
16.8588 -70.7787 0
15.268 -73.0826 0
14.5258 -70.5668 0
16.0333 -75.3622 0
15.268 -73.0826 0
13.9349 -75.0648 0
12.9388 -72.7922 0
15.268 -73.0826 0
14.5258 -70.5668 0
12.9388 -72.7922 0
11.9647 -70.284 0
11.7551 -70.3764 0
12.7587 -72.8632 0
14.2873 -70.6614 0
15.0262 -73.1582 0
12.7587 -72.8632 0
13.7993 -75.0767 0
15.0262 -73.1582 0
15.7875 -75.3818 0
14.2873 -70.6614 0
15.0262 -73.1582 0
16.5379 -70.8583 0
17.0159 -73.3619 0
15.0262 -73.1582 0
15.7875 -75.3818 0
17.0159 -73.3619 0
17.5046 -75.5937 0
13.7993 -75.0767 0
14.877 -77.0009 0
15.7875 -75.3818 0
16.5706 -77.3161 0
14.877 -77.0009 0
15.9913 -78.6177 0
16.5706 -77.3161 0
17.3742 -78.9429 0
15.7875 -75.3818 0
16.5706 -77.3161 0
17.5046 -75.5937 0
18.0055 -77.538 0
16.5706 -77.3161 0
17.3742 -78.9429 0
18.0055 -77.538 0
18.5203 -79.1772 0
16.5379 -70.8583 0
17.0159 -73.3619 0
18.5734 -70.9655 0
18.7876 -73.4752 0
17.0159 -73.3619 0
17.5046 -75.5937 0
18.7876 -73.4752 0
19.0029 -75.7185 0
18.5734 -70.9655 0
18.7876 -73.4752 0
20.5311 -70.9848 0
20.4879 -73.5005 0
18.7876 -73.4752 0
19.0029 -75.7185 0
20.4879 -73.5005 0
20.4383 -75.759 0
17.5046 -75.5937 0
18.0055 -77.538 0
19.0029 -75.7185 0
19.2244 -77.6826 0
18.0055 -77.538 0
18.5203 -79.1772 0
19.2244 -77.6826 0
19.4611 -79.3527 0
19.0029 -75.7185 0
19.2244 -77.6826 0
20.4383 -75.759 0
20.3904 -77.7537 0
19.2244 -77.6826 0
19.4611 -79.3527 0
20.3904 -77.7537 0
20.3599 -79.4741 0
15.9913 -78.6177 0
17.1399 -79.9075 0
17.3742 -78.9429 0
18.1963 -80.2421 0
17.1399 -79.9075 0
18.3189 -80.8495 0
18.1963 -80.2421 0
19.0337 -81.192 0
17.3742 -78.9429 0
18.1963 -80.2421 0
18.5203 -79.1772 0
19.0512 -80.4912 0
18.1963 -80.2421 0
19.0337 -81.192 0
19.0512 -80.4912 0
19.599 -81.4569 0
18.3189 -80.8495 0
19.5207 -81.4243 0
19.0337 -81.192 0
19.8817 -81.7722 0
19.5207 -81.4243 0
20.7351 -81.6177 0
19.8817 -81.7722 0
20.7351 -81.9675 0
19.0337 -81.192 0
19.8817 -81.7722 0
19.599 -81.4569 0
20.1623 -82.0499 0
19.8817 -81.7722 0
20.7351 -81.9675 0
20.1623 -82.0499 0
20.7351 -82.2502 0
18.5203 -79.1772 0
19.0512 -80.4912 0
19.4611 -79.3527 0
19.7242 -80.7099 0
19.0512 -80.4912 0
19.599 -81.4569 0
19.7242 -80.7099 0
20.0246 -81.7258 0
19.4611 -79.3527 0
19.7242 -80.7099 0
20.3599 -79.4741 0
20.3685 -80.899 0
19.7242 -80.7099 0
20.0246 -81.7258 0
20.3685 -80.899 0
20.4335 -81.992 0
19.599 -81.4569 0
20.1623 -82.0499 0
20.0246 -81.7258 0
20.3658 -82.3616 0
20.1623 -82.0499 0
20.7351 -82.2502 0
20.3658 -82.3616 0
20.7351 -82.5792 0
20.0246 -81.7258 0
20.3658 -82.3616 0
20.4335 -81.992 0
20.5618 -82.6937 0
20.3658 -82.3616 0
20.7351 -82.5792 0
20.5618 -82.6937 0
20.7351 -82.9382 0
20.5311 -70.9848 0
20.4879 -73.5005 0
22.5125 -70.9206 0
22.2229 -73.4407 0
20.4879 -73.5005 0
20.4383 -75.759 0
22.2229 -73.4407 0
21.9208 -75.714 0
22.5125 -70.9206 0
22.2229 -73.4407 0
24.6115 -70.7787 0
24.0885 -73.2993 0
22.2229 -73.4407 0
21.9208 -75.714 0
24.0885 -73.2993 0
23.5475 -75.581 0
20.4383 -75.759 0
20.3904 -77.7537 0
21.9208 -75.714 0
21.6142 -77.7396 0
20.3904 -77.7537 0
20.3599 -79.4741 0
21.6142 -77.7396 0
21.3184 -79.5148 0
21.9208 -75.714 0
21.6142 -77.7396 0
23.5475 -75.581 0
22.9932 -77.6267 0
21.6142 -77.7396 0
21.3184 -79.5148 0
22.9932 -77.6267 0
22.4339 -79.4399 0
24.6115 -70.7787 0
24.0885 -73.2993 0
26.9445 -70.5668 0
26.2022 -73.0826 0
24.0885 -73.2993 0
23.5475 -75.581 0
26.2022 -73.0826 0
25.4369 -75.3622 0
26.9445 -70.5668 0
26.2022 -73.0826 0
29.5056 -70.284 0
28.5315 -72.7922 0
26.2022 -73.0826 0
25.4369 -75.3622 0
28.5315 -72.7922 0
27.5353 -75.0648 0
23.5475 -75.581 0
22.9932 -77.6267 0
25.4369 -75.3622 0
24.649 -77.4096 0
22.9932 -77.6267 0
22.4339 -79.4399 0
24.649 -77.4096 0
23.8386 -79.232 0
25.4369 -75.3622 0
24.649 -77.4096 0
27.5353 -75.0648 0
26.5187 -77.1059 0
24.649 -77.4096 0
23.8386 -79.232 0
26.5187 -77.1059 0
25.4817 -78.9222 0
20.3599 -79.4741 0
20.3685 -80.899 0
21.3184 -79.5148 0
21.0612 -81.0236 0
20.3685 -80.899 0
20.4335 -81.992 0
21.0612 -81.0236 0
20.8753 -82.2173 0
21.3184 -79.5148 0
21.0612 -81.0236 0
22.4339 -79.4399 0
21.8869 -81.0226 0
21.0612 -81.0236 0
20.8753 -82.2173 0
21.8869 -81.0226 0
21.402 -82.3495 0
20.4335 -81.992 0
20.5618 -82.6937 0
20.8753 -82.2173 0
20.7723 -83.0161 0
20.5618 -82.6937 0
20.7351 -82.9382 0
20.7723 -83.0161 0
20.7351 -83.3049 0
20.8753 -82.2173 0
20.7723 -83.0161 0
21.402 -82.3495 0
21.0311 -83.2927 0
20.7723 -83.0161 0
20.7351 -83.3049 0
21.0311 -83.2927 0
20.7351 -83.6551 0
22.4339 -79.4399 0
21.8869 -81.0226 0
23.8386 -79.232 0
23.0051 -80.8391 0
21.8869 -81.0226 0
21.402 -82.3495 0
23.0051 -80.8391 0
22.1501 -82.2564 0
23.8386 -79.232 0
23.0051 -80.8391 0
25.4817 -78.9222 0
24.4212 -80.5272 0
23.0051 -80.8391 0
22.1501 -82.2564 0
24.4212 -80.5272 0
23.3218 -81.9336 0
21.402 -82.3495 0
21.0311 -83.2927 0
22.1501 -82.2564 0
21.3633 -83.4336 0
21.0311 -83.2927 0
20.7351 -83.6551 0
21.3633 -83.4336 0
20.7351 -83.9559 0
22.1501 -82.2564 0
21.3633 -83.4336 0
23.3218 -81.9336 0
22.1088 -83.2899 0
21.3633 -83.4336 0
20.7351 -83.9559 0
22.1088 -83.2899 0
20.7351 -83.982 0
5.02031 -42.154 0
5.73758 -46.3931 0
9.24785 -42.3569 0
9.78668 -46.6068 0
5.73758 -46.3931 0
6.49031 -50.4481 0
9.78668 -46.6068 0
10.353 -50.6725 0
9.24785 -42.3569 0
9.78668 -46.6068 0
13.1773 -42.495 0
13.5386 -46.7549 0
9.78668 -46.6068 0
10.353 -50.6725 0
13.5386 -46.7549 0
13.9201 -50.8293 0
6.49031 -50.4481 0
7.27869 -54.3098 0
10.353 -50.6725 0
10.9461 -54.5447 0
7.27869 -54.3098 0
8.10267 -57.969 0
10.9461 -54.5447 0
11.5652 -58.2141 0
10.353 -50.6725 0
10.9461 -54.5447 0
13.9201 -50.8293 0
14.32 -54.7095 0
10.9461 -54.5447 0
11.5652 -58.2141 0
14.32 -54.7095 0
14.7366 -58.3861 0
13.1773 -42.495 0
13.5386 -46.7549 0
16.9367 -42.5651 0
17.1149 -46.834 0
13.5386 -46.7549 0
13.9201 -50.8293 0
17.1149 -46.834 0
17.3057 -50.9157 0
16.9367 -42.5651 0